<?xml version="1.0"?>
<VTKFile type="UnstructuredGrid"  version="0.1"  >
<UnstructuredGrid>
<Piece  NumberOfPoints="387" NumberOfCells="708">
<Points>
<DataArray  type="Float64"  NumberOfComponents="3"  format="ascii">0 3 0  0 -3 0  6 -3 0  6 3 0  3 -3 0  6 0 0  3 3 0  0 0 0  3 0 0  0 -1.5 0  1.5 -3 0  1.5 3 0  0 1.5 0  6 -1.5 0  4.5 -3 0  6 1.5 0  4.5 3 0  4.25 -1.25 0  1.75 1.25 0  2.25 -1.5 0  4.5 0.75 0  1.541666666666667 -0.2083333333333333 0  3.219827586206896 1.521551724137931 0  1.125 -1.875 0  4.875 1.875 0  0.8702651515151515 0.631628787878788 0  2.25 2.214285714285714 0  3.316176470588236 -1.904411764705882 0  5.214285714285714 -0.75 0  5.03125 -2.03125 0  0.96875 2.03125 0  4.041666666666667 -0.2083333333333333 0  0.8205128205128206 -0.9134615384615387 0  3.942582294752138 2.189194098250713 0  3.061487638533674 -0.968243819266837 0  2.192708333333333 0.4427083333333334 0  4.157850026972511 -2.182329047049442 0  2.331456616463011 -0.5285296485744057 0  3.654761904761905 0.5654761904761902 0  5.25 1.125 0  2.563673341677096 -2.280663329161452 0  5.126674107142857 0.1283482142857142 0  0.75 -3 0  0 -2.25 0  6 2.25 0  5.25 3 0  0.7680051888903191 -0.1384245958639337 0  1.617229471026718 -1.006949429867069 0  4.218940341429579 1.468686552856807 0  3.75 -3 0  2.25 -3 0  0.75 3 0  5.25 -3 0  6 -0.75 0  0 -0.75 0  0 0.75 0  2.25 3 0  6 -2.25 0  0 2.25 0  3.75 3 0  6 0.75 0  1.787573018358365 -2.279142327213878 0  3.195025188237337 2.273430909158844 0  2.528159645294386 1.151699106559287 0  1.041598427383826 1.322848427383826 0  1.520951704545454 0.4634232954545453 0  1.580357142857143 2.325892857142857 0  4.919642857142857 -1.361607142857143 0  4.54981623521892 -0.6483700862895494 0  2.99317863826574 0.6697091957925523 0  3.450169349029507 -0.4574865881858001 0  3.605016126014028 -1.323102984840902 0  2.745144658907412 1.882241931337371 0  0.4898065586600511 1.092777516238393 0  0.5 -1.875 0  1.217028489597945 -2.469323836800685 0  1.659912685567181 -1.604738056701542 0  5.4375 1.6875 0  5.34375 2.34375 0  4.52741779500503 2.384139265001677 0  3.375 -2.514804579549941 0  0.5446428571428571 -2.455357142857143 0  2.766554087216865 -1.745795909102064 0  4.525516559010988 0.1490283123570637 0  3.87554132162248 -0.8280516069565407 0  4.53622906132958 -1.76963146596888 0  0.4243951612903226 1.875 0  0.554851858345021 2.446861709948876 0  5.575604838709677 -1.875 0  5.445148141654979 -2.446861709948876 0  4.875 -2.575604838709677 0  1.440573466105381 1.721823466105381 0  2.193519495405082 1.631799415080963 0  5.472630128027442 -1.330813078900983 0  4.750126894286386 1.343813447143193 0  5.607142857142857 -0.375 0  2.625 2.607142857142857 0  0.3921763197810531 0.375 0  5.60901753622775 0.3750000000000001 0  1.125 2.613454943235572 0  3.701856738980915 1.163867513386733 0  3.736112850688509 1.696746876851408 0  3.519183195491339 0.06065128742606851 0  3.973620778217027 -1.693401606145563 0  0.8125 -1.444978632478633 0  1.256657745408029 -0.6381828923025001 0  0 -1.125 0  5.019997778514942 0.6475044429701156 0  4.125 3 0  1.285569332703024 0.8955310332120207 0  0 -0.375 0  0.4638922275641027 -0.5625 0  2.056635259780241 -0.07226025978024064 0  2.130475508371123 -1.000827820434028 0  2.677484372338113 -1.267299126394495 0  2.848680878891876 -0.4956836878192376 0  4.937901885089369 -0.3340245904575954 0  4.393563081308854 1.919544166973803 0  4.053859126323572 0.2813938488760716 0  1.181051704329518 0.1167440895674965 0  1.971354166666667 2.607142857142857 0  4.875 3 0  2.519350561152006 0.08093582719875507 0  3.139443301924015 -1.442524927271905 0  6 2.625 0  1.849169256239503 1.945480934753207 0  1.867196483071171 0.7892354369530077 0  1.192506522009051 -1.184888428863342 0  3.375 3 0  3.603234392481833 2.536866305538572 0  3.846752908916648 -2.537707634073423 0  2.014339897513945 -1.886932065281681 0  4.038392037966526 0.8363324773944992 0  4.421242701722609 -2.552534687860327 0  3.715389848650903 -2.108856956172843 0  2.985668138820625 1.127780908772207 0  0.4500794934449803 -1.173696061598557 0  3.366760888116476 0.8891914618875614 0  1.869163043700093 -0.6107175804171328 0  2.175114838273305 -2.53928723780967 0  3.014417665538299 -2.241523065744933 0  2.625 -3 0  2.819968145332426 -2.617202329573456 0  5.625 1.3125 0  5.563263538826679 0.814027077653358 0  5.625 3 0  2.550041671270923 0.7074928970804664 0  4.014583091741168 2.59891853892166 0  0.6440729668673318 1.499523832583132 0  5.219449799568244 -1.660557808485412 0  3.474012636702472 -0.9300738420779746 0  0.8125 -2.142857142857143 0  1.875 -3 0  4.945010515846405 2.554471797033147 0  2.611388969012422 -0.8478354915063726 0  3.223746055611014 0.3371683159691745 0  4.843939757110898 -0.9483610977948225 0  4.66556954816842 -2.220888354477256 0  4.125 -3 0  4.448108395110625 -0.2524000502731018 0  5.63671875 2.05078125 0  2.822484133964224 1.491327727709286 0  3.378213092764193 1.903125093887009 0  5.607142857142858 -0.9231200445788541 0  2.12639693023183 1.100450516019641 0  5.625 -3 0  0.375 3 0  0 2.625 0  6 -2.625 0  0.3931307155906299 -0.01856779822591927 0  0.7651723094668359 0.253768144801553 0  0.8549199714190221 -0.5218333744252657 0  1.421989550604507 -2.133299471886336 0  1.582611957351803 -2.615166692128227 0  4.420331038793115 1.133144382396504 0  0.375 -3 0  0 -2.625 0  5.078156723571596 1.54697017071479 0  1.877250715260938 -1.288801575378032 0  2.409169073010687 -1.916147168931784 0  1.146151077069952 -0.268000681695328 0  1.726784828652036 0.1335728643263411 0  2.745628549924675 0.3838821021397905 0  3.011490900297165 2.613625569196862 0  5.62463365164608 -4.137655439684362e-05 0  1.875 3 0  1.125 3 0  6 0.375 0  2.625 3 0  6 -1.125 0  6 -0.375 0  4.875 -3 0  6 -1.875 0  3.375 -3 0  1.125 -3 0  0 -1.875 0  0 0.375 0  0 1.125 0  0 1.875 0  6 1.125 0  6 1.875 0  4.813017731148975 0.9677363687196439 0  2.807371623148303 2.264962208227767 0  0.3692953377255688 0.7436406761680247 0  5.615625 2.615625 0  0.9395725521479794 0.9812935874921043 0  1.390920759130215 1.238984550166515 0  0.9588795022085095 1.672288500195331 0  0.87712392565124 -2.641031728267331 0  0.3665732993114588 -1.532068934251388 0  1.841944504733106 1.591700334213738 0  4.832970185136452 0.3385359233091246 0  4.169083540479082 -0.5746148619765254 0  5.281697083409333 -0.2046640461936881 0  4.072845380968044 1.784516523483641 0  1.293029195762321 -1.543079049035419 0  4.878733886054284 -1.720697370582964 0  3.609167475697567 -1.687579152754035 0  4.836981942878573 2.222259978217028 0  4.204938267037067 -0.9128589669335569 0  5.183079748175263 -1.111742407358677 0  1.22880920402559 2.273525645756405 0  1.469404041858679 2.654509729682302 0  4.566761045622856 -1.414165869120005 0  4.531680518427715 1.606803989975667 0  1.918929241273175 2.27471131819245 0  3.526908551984126 2.207147627530056 0  1.85683899811842 0.4533569963423589 0  1.173935704088662 0.4636872214645547 0  2.116602160898525 -2.207718541460878 0  4.51821874648995 -1.042568353750147 0  2.721551512787618 -0.1859357475290837 0  5.294921875 2.001953125 0  5.288671874999999 2.670703125 0  2.199940744527116 0.7756512213396931 0  4.090519467638897 1.163401080812838 0  2.298177083333333 2.670581371753247 0  2.484362362207526 -2.687319997637033 0  3.300530569898859 1.207053005217563 0  3.936078051808127 -1.362164062673065 0  5.341218841330105 0.5689885832563615 0  4.226314635599414 0.5638853401248238 0  2.524510956818563 1.635483567726497 0  0.3219546452225031 1.389066019009203 0  3.139061555368706 -0.3133905221155423 0  3.145569907612562 -0.6461828528638952 0  3.701427442033566 -0.2272880199383185 0  1.686782510365738 -1.934662341426927 0  2.427696494631844 1.944064773844184 0  3.901817839425732 1.422433381251312 0  2.356489883772755 -0.2025512972825912 0  4.820757576351118 -0.01647699434507374 0  3.064415631228375 1.809719380809516 0  4.643002705009462 2.69782572459795 0  4.31624250429496 2.728112685900672 0  1.520100694408069 -1.314302747998057 0  3.754559308601717 -0.5375020107416889 0  0.25 -2.0625 0  0.8125 -1.826636904761905 0  4.861738621091127 -0.6367294570749906 0  1.545149590740081 2.015832101819233 0  3.857113324620078 0.04127675193819436 0  0.2479605082936806 -0.9375 0  4.21293081604216 2.352874368135467 0  3.123697687162562 -2.708090473740421 0  3.415275466010259 -2.202892416689829 0  3.601103065320932 -2.727566580522146 0  1.558629964945672 -0.5289921609136927 0  3.324859026263307 -1.198136798699183 0  2.424350759683917 -1.092246517929194 0  2.746461744851735 0.9398108087856579 0  0.8882026075771248 2.364936378889839 0  0.8066140242673685 2.679750706449505 0  4.504454978490482 0.4491616076730165 0  4.26881784709759 -0.009649566552704852 0  1.3125 -2.75919801263958 0  1.120577805361368 -2.179971784090952 0  3.734048623985226 0.8602850349907256 0  3.527828882622877 1.432983527791925 0  1.959527908877504 -1.578124930685265 0  0.7602573574724077 1.220872343399509 0  0.6691217533356228 0.8531987603309893 0  1.877213035764122 -2.564340152892596 0  3.32172153715047 2.685939810104955 0  4.285565286275464 -1.569057178671076 0  4.227521511146333 -1.876903861267543 0  5.34375 1.40625 0  5.71875 1.59375 0  1.56245959534423 0.766197796710638 0  0.2458241530773257 2.4375 0  0.2794123857609179 2.138568368155198 0  5.754175846922674 -2.4375 0  5.720587614239082 -2.138568368155198 0  0.6472458227887359 2.124973059628837 0  5.124241021325378 -2.352544055105642 0  5.189172233440652 -2.675873509996353 0  5.364643151640443 -2.12768524739804 0  2.298896485720138 1.348573610321417 0  0.6008689899200503 -2.745193425346304 0  0.307092513690391 -2.651812055231556 0  0.2683745826107009 -2.363146293324415 0  0.5223214285714285 -2.165178571428571 0  0.3925308914031174 2.699891746740618 0  5.607469108596883 -2.699891746740618 0  2.138365140930822 1.917102089073091 0  1.25507379660067 1.953406658386351 0  4.135759889512124 -2.476847355718572 0  0.5330865684534913 -0.8980875812659357 0  2.548249345531056 -1.538893887888457 0  2.67686064875775
[...]
<CellData  Scalars="f_26-2"> 
<DataArray  type="Float64"  Name="f_26-2"  format="ascii">1.5696770353362549e+68   1.0050831036356253e+69   9.1706745471251329e+68   2.2107619506861353e+69   4.8257398257657958e+68   7.6184084410565043e+68   -3.7683825219581545e+68   2.5896420560863024e+68   -9.7186797583027501e+66   2.3253971820428544e+67   4.0384876563373299e+68   -8.5613709445358981e+68   -3.3532661308719451e+68   -7.7673602781672835e+68   -5.7328769697272858e+66   -1.9592200795066791e+68   -7.0102161487073761e+68   1.0111648412359963e+68   -1.6041648476304281e+68   -4.8882931127900739e+67   6.1827756993781633e+67   -2.7254222181682625e+68   -2.3645594095428946e+68   7.6897576585905465e+67   1.9596275288004872e+68   -7.8034193437398357e+67   1.2551537432005959e+69   1.6983446020264871e+68   2.1948972621301783e+68   -2.4667796708493728e+67   7.2901795864161198e+67   -4.2341094834913098e+68   -1.0372178233174300e+66   -7.7872006386017366e+68   5.7658464494291962e+68   5.4367900834399133e+68   -1.6851643828722815e+67   4.8118532053436093e+67   -6.2169002529334138e+68   1.4596839524087395e+68   2.8435142694615605e+68   -1.4280701569690183e+67   -4.1220164373074968e+68   -4.4515263503773414e+68   -1.3466699667881908e+69   -6.1026340508322782e+68   -5.3898209017775784e+68   -1.6957107431204303e+70   9.2955239664486722e+68   -7.6614607358312318e+68   8.1083049261752051e+68   -1.2495639553120079e+69   7.2752105930151265e+68   1.4403176525676957e+68   5.9834913385637235e+68   5.2835854290730884e+68   -9.5721846800349655e+68   -4.3418751630019333e+68   -2.4786962618481229e+67   -2.9786975564467262e+67   4.3306476815037722e+67   6.8368492159234492e+67   -4.1950815941120377e+67   -1.4683736155771546e+68   2.8976302633409769e+69   -5.3791192977974138e+69   3.8640076120157537e+67   -2.1733933823258677e+69   -1.2126484077655448e+68   3.1679038612708228e+68   -1.5210884939239015e+68   -5.9835633617639941e+68   1.9965970669225784e+68   2.3494544874588402e+68   -1.0765572545381319e+68   -3.0857982509457820e+68   7.7737314349811732e+68   4.6403317777233726e+67   -2.5869249619804563e+68   -5.2062443171634749e+66   -5.2436838780158895e+67   -2.9520543342516101e+67   -5.7534589908935759e+67   1.2245749335211945e+68   1.0446232981606360e+68   2.0084344199373829e+68   -7.7229927327724764e+67   1.6412255623096124e+67   -1.0816276129445056e+68   -2.0079795525808782e+68   5.0654536402289412e+67   -3.8729312244791466e+68   -1.4686753131721009e+68   3.3319622022248079e+67   9.7161898719051573e+67   8.2677742478273569e+67   -1.6545975196359665e+68   -2.3600319057216693e+68   -1.2965214067084974e+70   5.7465501951891245e+68   5.2699782348070372e+68   1.6676842294552436e+69   5.8464445107004902e+68   7.8243521421100465e+68   -2.3313707478006497e+68   -1.1799999298739243e+69   2.0460798352010542e+70   -3.1853397174409762e+68   -4.9777813698913933e+68   2.2411734287130375e+68   3.5961983537394089e+68   -3.6174296160359362e+68   -3.0421550044610661e+68   -9.8069238800676267e+67   -7.3967322755550602e+67   2.2750923775823736e+67   1.4397554558380684e+67   -1.8976132118894335e+68   -4.5614070588176656e+67   3.8955980039317857e+67   1.6305081102384855e+68   -1.5830166377040167e+67   -2.4022251258171882e+68   3.9651923914985846e+67   1.1200883731321454e+67   -1.6391771468119062e+67   -3.2662640139685768e+67   3.3773023775571920e+69   -4.5508471193945545e+66   -5.6882955044451554e+68   -1.0882257343172846e+69   2.6605584578296642e+68   2.1168998146829052e+69   -1.4672688746384542e+68   -2.0990794792635022e+68   -2.5596935904720476e+68   4.7068631349454834e+69   1.4928176367412623e+69   -2.5258671698555453e+68   -4.1737393082947715e+68   -3.5381440504596628e+68   -4.0344496260972946e+68   -2.8508492564719635e+68   -1.0905316212682114e+68   3.5062592751350814e+67   -7.5983294171068920e+66   1.0272863547349592e+69   4.9720020313734163e+68   1.3196302797932139e+67   5.0301349502003100e+68   -5.2482313826376241e+68   -1.3703664933995289e+69   -3.0994792838777161e+68   -5.0117007070622698e+68   1.0002011764166158e+67   -3.8556609689435099e+67   1.4459563529849015e+68   1.6778366203828525e+67   -6.4471081425781813e+69   -9.8210687988176364e+68   -9.5096541782183674e+69   3.3140178332762212e+68   1.7693182016815598e+68   2.4513409579108190e+68   2.7040601570931531e+68   2.2739879792585712e+68   2.0169639625814058e+68   3.4345749847522755e+68   7.6866786241008745e+67   4.0568102725180919e+67   -1.9947953899669934e+68   -2.5400479265990020e+68   -1.1967064128913740e+69   -1.2684242419546377e+69   -2.4422101771876150e+68   -1.3315675649717530e+68   2.9272637268667413e+68   4.8158200747623671e+68   3.3327666240058480e+68   1.6553144760158211e+69   9.5480447254360144e+69   1.6156177178888914e+69   2.5430490505178735e+67   -4.4669797308615165e+67   5.5552593528496083e+67   1.5927504192688064e+68   3.4544654164324630e+68   -9.2910584509239364e+68   -7.0424737675012314e+67   -1.8137974802908417e+67   -1.0737709380379757e+68   -1.0070902449590737e+67   5.8372395044613304e+68   6.8594680223834426e+68   4.1241861305548774e+68   5.2889808235827035e+68   6.8260013054969953e+69   1.1825327555201086e+69   4.7791425799240732e+67   4.2599711121698083e+68   4.5021838887412317e+68   -4.1049631902051789e+68   -4.8545070344957715e+68   -5.3275790606560463e+68   -3.0103235235736304e+68   2.6702206769324037e+67   6.2043138557944539e+67   -2.1296929039962057e+68   -1.4612179468348497e+68   2.5610856132217077e+68   5.4030469123818635e+68   -1.9359461692810487e+68   -1.8722638022321726e+68   2.4035743923454380e+68   3.2795329003601366e+68   -1.2111387971359187e+68   2.0929310255028122e+68   1.5625540958214444e+68   -5.8770343435992118e+68   -3.7819607613139375e+68   -3.0145913009558151e+69   -4.7838883328288542e+69   1.0877614920622539e+70   8.7543877340752687e+69   -1.0992473189896071e+68   1.4033700089062475e+70   1.4257897981285307e+70   -1.4676395747660851e+67   -6.4386012856371658e+67   1.2749641539679479e+70   6.2099939871521214e+69   -1.8344036902387665e+68   4.8357904512989878e+67   2.8754917185605931e+66   2.5703500755019945e+67   1.1473857580061469e+68   1.2576748712256112e+68   1.9365521177637802e+69   -2.9994129401166507e+68   -7.3825555575204729e+69   -1.3561376675079458e+70   -1.5878301450290218e+69   -1.7539792673756983e+69   4.1468946066232076e+68   3.1805417653074367e+68   -1.4760574156139887e+68   1.4052352609376257e+67   -1.4500316044847706e+67   -9.1293482360427904e+67   -1.9792637260304203e+67   6.8549449457242167e+66   -2.1660214031188461e+69   -2.2323011455314134e+68   -2.2091191786749432e+68   -8.6412482247077401e+67   1.1670160742405976e+70   -5.2631180889437159e+67   -1.5128115820979551e+68   -1.7872463772235163e+68   -2.8291060665521078e+68   1.2778412215442163e+68   -1.6642101673857662e+68   -8.0751797793756196e+67   2.7773273728542841e+67   -3.5992353356623325e+68   -8.6909827106717694e+68   -1.4834403731527269e+68   6.3524893597564366e+68   -1.3019622192720373e+68   -2.1111404773028749e+68   -2.6686803833154784e+68   6.1150906693703339e+67   -3.3975872511898878e+69   -1.0779568095876230e+68   1.8869521410066165e+68   1.5790910530649578e+68   -1.1357356084615356e+69   3.3275964480373587e+68   9.4647105758993647e+68   1.3063080552543671e+69   -3.4626850180491929e+69   -2.5522436989672300e+68   -5.4477456827242468e+68   -5.2816786142274475e+68   -3.0745126942095129e+70   -1.3416507127603676e+70   -2.9906203481123322e+70   -1.7693060021418801e+69   -4.3839352938903949e+68   -1.5945795851258111e+69   6.6473724877368859e+68   9.0972164769327067e+68   2.4665688694545791e+68   1.9384544410034511e+68   3.8032886014298475e+68   1.8581159029351648e+68   1.8771019724179768e+68   2.4501619731563410e+68   -3.2475812186445913e+67   -7.6034751145787491e+67   5.2212341885567728e+69   2.3603975770211797e+69   5.2855447587394144e+67   6.5041997817709740e+69   4.1701012812119544e+68   2.6584561048910584e+69   4.7778601192283132e+68   6.5003459050791659e+68   3.3200469354889432e+69   8.9023621448139277e+69   2.6439624528354069e+68   5.1242884666827964e+69   5.0831060969181852e+68   1.3353831434676527e+69   2.6432422138696609e+69   2.2839371718629739e+69   -6.0629038966888597e+68   -4.1096694497741969e+69   2.2946536014361185e+68   3.9350136128468661e+68   -6.1037596001409578e+67   -2.7317158565334634e+69   -1.3281192566599468e+69   -2.5032681095977362e+70   -5.1777179746019193e+69   -6.0199266164200987e+69   -5.7754356737546306e+69   -7.4559136529718116e+68   -1.4795481808568212e+68   -1.5149253463087045e+69   -2.8255240669705498e+68   -4.9069599424930671e+68   4.8622407477855950e+69   1.1507857505153199e+70   1.1221209678704290e+70   5.6211762099861758e+69   -7.4108556785677153e+68   -6.2328276752278238e+68   -1.2549505726226631e+68   -1.1343474933369802e+68   -4.1662163524377292e+69   -1.9493973729280173e+69   1.6731873241104441e+70   8.3201863509449819e+69   1.0483744183638818e+68   4.0587564391945682e+67   1.2625590037465788e+67   1.9336638425323596e+67   3.1172796179679366e+67   2.6236351707324535e+67   -1.4147214920796896e+70   -6.5953916281775155e+69   -8.5321054177411878e+69   -4.1445740063532182e+69   -4.3439876517074693e+67   -5.4214531302159813e+67   -3.5729172551301603e+68   -2.5297509742052557e+68   -1.4023685162399841e+68   -1.6561042608650093e+68   2.2492835029613058e+68   -1.3825755172397959e+68   -4.0224147045529172e+68   -6.8771490281890145e+68   1.0658428915463464e+69   1.4192797586680179e+69   -3.0033531878888203e+67   7.8523750094996657e+66   1.3339407600733949e+68   1.4859543609271308e+68   -1.3772512590267044e+69   -1.4788312090088102e+69   -7.3275548374760752e+67   2.8819046044627927e+67   -1.6812423381680238e+68   -1.0218207233880089e+68   3.7862417481193206e+67   -5.7108951632044889e+67   3.4642918255166054e+69   1.3207154840077688e+69   -3.4183934244351668e+67   -4.4002422236171366e+67   -8.1853275699219099e+68   -8.6774355313871411e+68   -9.7590032278887094e+66   9.9086596904991015e+67   -3.4368539346080195e+68   -1.5459071350693663e+68   1.5384134199730745e+68   1.1043274778572097e+68   4.9640058687392182e+67   1.0723038263448458e+68   4.9813521620162535e+68   -3.5657491564322116e+69   -4.1080861070423335e+67   -1.0082510891274834e+68   1.3412419122594324e+68   7.6451489220540971e+67   -1.3571924689600403e+69   -1.1858426427439236e+69   7.7370112483971002e+69   1.5616836806584830e+70   5.8707163348938877e+67   1.0594891696904150e+67   -6.2278933760084437e+68   -4.9484390818360098e+68   1.6986186442467360e+69   2.9939982592405978e+69   -8.0689303466352638e+69   -6.0312670051536512e+69   -3.0339521689887962e+68   -3.5937073652205819e+68   5.9855929855234860e+67   9.7804307749640584e+67   -2.9542515174245194e+68   -1.2314982697669601e+68   -3.9719705787494328e+68   -4.3804385692970770e+68   -4.1507394698928547e+67   -8.9447343781964257e+67   -2.7331449227363122e+69   -6.0668875315159636e+68   -4.9072119799065903e+67   -6.4361889526448033e+65   7.7738168149713704e+67   4.8047975020322172e+67   -1.0535651543163271e+68   -1.0150809252748888e+68   6.7982081765090654e+68   6.9184126753919119e+68   -9.9187109718966197e+67   -2.3919399130410973e+67   -5.6052108578511047e+68   -4.5748578394451431e+68   1.4043560573978818e+68   2.0919958178489249e+68   -3.0559453245696417e+68   -3.2069711741749442e+68   -1.9203226685915478e+68   -2.1987935763171767e+68   5.6142045305447935e+68   8.2395364205989502e+68   1.0999889249757627e+70   4.7002403924113285e+69   7.6802818718153874e+68   7.1758981667875879e+68   1.8618683640676261e+67   -2.8894282775641546e+66   -1.1134866202386769e+69   -4.1989496192762004e+68   1.8961266762811944e+69   1.8602337600005712e+69   -1.6885412009040549e+68   -2.0363892899021282e+68   4.1707434641907353e+67   4.0039315237064909e+67   -2.4507880576725743e+68   -1.7832524771414012e+68   -8.0723821550703489e+68   -3.5985018548278174e+69   -8.7000431613642789e+68   -9.8974869713639186e+68   -4.5920231361966726e+69   -7.4920844271826127e+68   1.2066292981738164e+68   -7.0712369707924886e+67   -2.1853601997813096e+69   -4.1153180201420116e+69   3.7919681547060660e+68   4.2955858804784022e+68   2.1578779377048304e+68   1.6034574642630221e+68   5.5990431192469683e+68   3.9249107446905726e+68   -1.5212338938106599e+68   -9.4010526378596335e+67   9.4616624675582254e+67   2.3767375547539416e+67   6.5362958055264666e+67   -6.7049377675603927e+67   -3.8110320163928826e+68   -4.5366747766486643e+68   -2.3372554389586792e+68   -2.4443496139671409e+68   -5.6361370256400296e+69   -1.0297606175794732e+69   1.3792217878706878e+69   1.6072445464488306e+69   -3.2819759751346396e+68   -3.0204507689825035e+68   -2.9642149378041436e+68   -3.4149610676986773e+68   6.2597310283197183e+68   7.1090858386167896e+68   6.4099690260633320e+67   4.9973046827624628e+67   3.7788867647347325e+67   -2.4841593082558368e+67   -1.6688908890330777e+68   1.0628035849822795e+68   9.0586360328704950e+69   3.9675587231297372e+69   1.5091277292667119e+67   -1.2450404431332300e+67   -1.1866283270479816e+67   8.8862535637332798e+66   -1.0021288063895979e+69   -8.4029717884530075e+68   5.5222702769074258e+69   1.0191681437744623e+69   9.4579869554137687e+67   1.2028623106637251e+68   -9.2873299556726679e+67   -1.4422039870234747e+68   -1.0753728021151019e+69   -6.7849280256930953e+68   4.4416184056731457e+67   1.7326273465987725e+68   8.9740766504319329e+68   6.1012708120378548e+68   1.9740323633800524e+67   1.9104917649637160e+67   1.7211866690797100e+68   8.9516899079639783e+67   -5.1079488453725179e+67   7.9415255310055315e+67   1.5693650459597422e+68   2.6328212789056367e+68   -1.4480493627879629e+68   -1.1666363884535139e+68   -9.6390015283510633e+69   -4.2700509836116231e+68   -2.3712874104990987e+70   -1.3131188168709388e+70   -1.1145652043977869e+69   -1.0019214485353658e+70   2.3682308692109843e+69   1.8455047844232742e+69   2.2140435709027690e+68   1.4199569884559147e+68   -3.5478748164866474e+68   -5.3903167096826057e+68   -4.4136348822862117e+67   -5.4892338486025208e+67   2.0863014331096460e+67   2.5158101254391901e+67   -6.4644868011245476e+67   1.3930768276890377e+67   5.0881267461860469e+68   2.6861758118683028e+68   4.1454242666216418e+68   3.4966522947518400e+68   2.7556495222470720e+68   2.8719303305110807e+68   2.0223948042886050e+68   2.4135662202183585e+68   -9.6944993980147012e+67   2.1893963496003519e+67   -3.4013305725000103e+68   -2.9587681469122566e+68   -2.4057761751304651e+68   -2.6749669945265983e+68   2.1305172168143251e+68   2.3516477088160833e+68   -2.8962008749828238e+67   -3.0971043825070724e+66   7.3730554523781424e+68   1.7400868090029198e+69   -8.7698095562171498e+68   -2.4256299407875934e+69   -2.6353804142794370e+69   -8.5582203384489418e+68   1.9124283159631210e+69   4.1696640612962711e+68   2.9883996484653055e+68   7.4549077216293487e+69   1.0226787994531813e+69   1.2279809024070832e+69   2.6512318386510007e+67   1.6284403979340410e+67   -2.4078749469946566e+67   -5.7185252317360067e+66   -4.7590189402212791e+67   -6.1967970294716755e+66   -6.1300411605661103e+68   -5.6717235642460934e+68   9.7657029242688185e+67   1.5438474843520058e+67   4.1186148803187806e+67   7.0751914475744046e+67   -1.9356410920076714e+68   -1.5868250248216017e+68   5.1494232799295945e+68   2.3971478613393688e+68   2.2113255552645775e+66   2.3803809726258126e+67   6.0682303777487937e+67   6.9759006035163849e+67   -5.0599928186375793e+68   -5.6811862703697303e+68   5.7653067859341313e+68   5.9222508461128312e+68   -2.2789676671901306e+67   7.7003649563293253e+66   -3.5542896638525625e+69   -1.4160913081169373e+69   6.7245917159114941e+68   6.5882925189428536e+68   9.1481031736132358e+67   1.6021877434180385e+68   4.3719389156467857e+69   2.2605706832536753e+69   -1.8285542956287102e+69   -5.4842185188891475e+69   -2.8081351167175376e+68   -2.5279596888069653e+68   2.7247082277357371e+68   3.2812344654205621e+68   -1.1350002516731790e+69   -1.3076586167877938e+69   -9.6748740916188962e+68   -9.9650078673107753e+68   -6.3534201045096500e+66   -2.6853945533098877e+67   1.1267408565226852e+69   2.4109154169997428e+69   -7.0036865134768910e+67   3.0929691163011185e+67   -2.6939942311680789e+69   -8.6973974117516183e+68   -1.2671007509643487e+67   1.2199536575218982e+68   1.2026454564566123e+69   6.3545234184858998e+68   3.2867517585480531e+68   3.2863353957742700e+68   -1.9977179387821973e+69   -3.9049241501398202e+69   -1.1808136633149019e+69   -1.2518130904388770e+69   -1.5883798287724581e+69   -4.8956773905419605e+68   1.6774156554274863e+69   5.2402951312233745e+69   -5.3385302843779578e+67   -8.7283243045913770e+67   3.9115986729248580e+68   1.6238573408514755e+69   8.1982140453495152e+68   7.3590977537391012e+68   1.2980214123606412e+69   1.2373572260224097e+69   1.4483630530700088e+69   1.6375353987131516e+69   1.2548885814203249e+69   3.7948320077009270e+69   -6.4028487820735419e+68   -1.6249470503453654e+69   -2.8161521547083250e+69   -6.4599848645969789e+69   1.5814768369747896e+69   9.6339547618074037e+68   3.1216809918810881e+69   1.2455537027662723e+69   5.0633553685225299e+70   5.0262451138772984e+70   -4.1639092403523940e+68   -4.2458796173901329e+68   -3.9332302187987101e+68   -3.2725250885630682e+68   2.3666346864292524e+68   2.2415451605381911e+68   7.3462843142865727e+69   2.0094739576627607e+69   -9.7907277339928977e+68   -7.9281979755815354e+68   -8.4472663532467573e+66   -2.2299660868645359e+67   -1.7671335848315952e+68   1.2626842838964057e+67   -2.3609285849172424e+67   -7.3418323410193298e+67   -3.0641001807848866e+69   -1.2443921388934631e+69   2.3784616865884076e+69   1.7939595611366803e+69   -1.7444801092687728e+69   -1.6662517405314668e+69   1.4998603889859625e+68   1.0808785183692634e+68   2.3321910007368061e+68   1.8518479487899326e+68   9.5887716319221713e+66   2.3262255760326725e+67   1.3634443236571918e+68   1.1199478269725430e+68   6.1397656740636890e+68   6.5622535267543877e+68   4.9018459663671457e+68   5.2437255066633361e+68   4.8224216885293509e+68   4.6027752358561656e+68   3.7727241467337542e+68   4.3617608985642274e+68   -7.2073582508091188e+67   -6.8553931448874987e+67   -8.7278340892136537e+67   8.3245845825029176e+66   </DataArray> 
</CellData> 
</Piece>
</UnstructuredGrid>
</VTKFile>