<?xml version="1.0"?>
<VTKFile type="UnstructuredGrid"  version="0.1"  >
<UnstructuredGrid>
<Piece  NumberOfPoints="2534" NumberOfCells="4892">
<Points>
<DataArray  type="Float64"  NumberOfComponents="3"  format="ascii">0 3 0  0 -3 0  6 -3 0  6 3 0  3 -3 0  6 0 0  3 3 0  0 0 0  3 0 0  0 -1.5 0  1.5 -3 0  1.5 3 0  0 1.5 0  6 -1.5 0  4.5 -3 0  6 1.5 0  4.5 3 0  4.25 -1.25 0  1.75 1.25 0  2.25 -1.5 0  4.5 0.75 0  1.541666666666667 -0.2083333333333333 0  3.219827586206896 1.521551724137931 0  1.125 -1.875 0  4.875 1.875 0  0.8702651515151515 0.631628787878788 0  2.25 2.214285714285714 0  3.316176470588236 -1.904411764705882 0  5.214285714285714 -0.75 0  5.03125 -2.03125 0  0.96875 2.03125 0  4.041666666666667 -0.2083333333333333 0  0.8205128205128206 -0.9134615384615387 0  3.942582294752138 2.189194098250713 0  3.061487638533674 -0.968243819266837 0  2.192708333333333 0.4427083333333334 0  4.157850026972511 -2.182329047049442 0  2.331456616463011 -0.5285296485744057 0  3.654761904761905 0.5654761904761902 0  5.25 1.125 0  2.563673341677096 -2.280663329161452 0  5.126674107142857 0.1283482142857142 0  0.75 -3 0  0 -2.25 0  6 2.25 0  5.25 3 0  0.7680051888903191 -0.1384245958639337 0  1.617229471026718 -1.006949429867069 0  4.218940341429579 1.468686552856807 0  3.75 -3 0  2.25 -3 0  0.75 3 0  5.25 -3 0  6 -0.75 0  0 -0.75 0  0 0.75 0  2.25 3 0  6 -2.25 0  0 2.25 0  3.75 3 0  6 0.75 0  1.787573018358365 -2.279142327213878 0  3.195025188237337 2.273430909158844 0  2.528159645294386 1.151699106559287 0  1.041598427383826 1.322848427383826 0  1.520951704545454 0.4634232954545453 0  1.580357142857143 2.325892857142857 0  4.919642857142857 -1.361607142857143 0  4.54981623521892 -0.6483700862895494 0  2.99317863826574 0.6697091957925523 0  3.450169349029507 -0.4574865881858001 0  3.605016126014028 -1.323102984840902 0  2.745144658907412 1.882241931337371 0  0.4898065586600511 1.092777516238393 0  0.5 -1.875 0  1.217028489597945 -2.469323836800685 0  1.659912685567181 -1.604738056701542 0  5.4375 1.6875 0  5.34375 2.34375 0  4.52741779500503 2.384139265001677 0  3.375 -2.514804579549941 0  0.5446428571428571 -2.455357142857143 0  2.766554087216865 -1.745795909102064 0  4.525516559010988 0.1490283123570637 0  3.87554132162248 -0.8280516069565407 0  4.53622906132958 -1.76963146596888 0  0.4243951612903226 1.875 0  0.554851858345021 2.446861709948876 0  5.575604838709677 -1.875 0  5.445148141654979 -2.446861709948876 0  4.875 -2.575604838709677 0  1.440573466105381 1.721823466105381 0  2.193519495405082 1.631799415080963 0  5.472630128027442 -1.330813078900983 0  4.750126894286386 1.343813447143193 0  5.607142857142857 -0.375 0  2.625 2.607142857142857 0  0.3921763197810531 0.375 0  5.60901753622775 0.3750000000000001 0  1.125 2.613454943235572 0  3.701856738980915 1.163867513386733 0  3.736112850688509 1.696746876851408 0  3.519183195491339 0.06065128742606851 0  3.973620778217027 -1.693401606145563 0  0.8125 -1.444978632478633 0  1.256657745408029 -0.6381828923025001 0  0 -1.125 0  5.019997778514942 0.6475044429701156 0  4.125 3 0  1.285569332703024 0.8955310332120207 0  0 -0.375 0  0.4638922275641027 -0.5625 0  2.056635259780241 -0.07226025978024064 0  2.130475508371123 -1.000827820434028 0  2.677484372338113 -1.267299126394495 0  2.848680878891876 -0.4956836878192376 0  4.937901885089369 -0.3340245904575954 0  4.393563081308854 1.919544166973803 0  4.053859126323572 0.2813938488760716 0  1.181051704329518 0.1167440895674965 0  1.971354166666667 2.607142857142857 0  4.875 3 0  2.519350561152006 0.08093582719875507 0  3.139443301924015 -1.442524927271905 0  6 2.625 0  1.849169256239503 1.945480934753207 0  1.867196483071171 0.7892354369530077 0  1.192506522009051 -1.184888428863342 0  3.375 3 0  3.603234392481833 2.536866305538572 0  3.846752908916648 -2.537707634073423 0  2.014339897513945 -1.886932065281681 0  4.038392037966526 0.8363324773944992 0  4.421242701722609 -2.552534687860327 0  3.715389848650903 -2.108856956172843 0  2.985668138820625 1.127780908772207 0  0.4500794934449803 -1.173696061598557 0  3.366760888116476 0.8891914618875614 0  1.869163043700093 -0.6107175804171328 0  2.175114838273305 -2.53928723780967 0  3.014417665538299 -2.241523065744933 0  2.625 -3 0  2.819968145332426 -2.617202329573456 0  5.625 1.3125 0  5.563263538826679 0.814027077653358 0  5.625 3 0  2.550041671270923 0.7074928970804664 0  4.014583091741168 2.59891853892166 0  0.6440729668673318 1.499523832583132 0  5.219449799568244 -1.660557808485412 0  3.474012636702472 -0.9300738420779746 0  0.8125 -2.142857142857143 0  1.875 -3 0  4.945010515846405 2.554471797033147 0  2.611388969012422 -0.8478354915063726 0  3.223746055611014 0.3371683159691745 0  4.843939757110898 -0.9483610977948225 0  4.66556954816842 -2.220888354477256 0  4.125 -3 0  4.448108395110625 -0.2524000502731018 0  5.63671875 2.05078125 0  2.822484133964224 1.491327727709286 0  3.378213092764193 1.903125093887009 0  5.607142857142858 -0.9231200445788541 0  2.12639693023183 1.100450516019641 0  5.625 -3 0  0.375 3 0  0 2.625 0  6 -2.625 0  0.3931307155906299 -0.01856779822591927 0  0.8549199714190221 -0.5218333744252657 0  0.7651723094668359 0.253768144801553 0  1.421989550604507 -2.133299471886336 0  1.582611957351803 -2.615166692128227 0  4.420331038793115 1.133144382396504 0  0.375 -3 0  0 -2.625 0  5.078156723571596 1.54697017071479 0  1.877250715260938 -1.288801575378032 0  2.409169073010687 -1.916147168931784 0  1.146151077069952 -0.268000681695328 0  1.726784828652036 0.1335728643263411 0  2.745628549924675 0.3838821021397905 0  3.011490900297165 2.613625569196862 0  5.62463365164608 -4.137655439684362e-05 0  1.875 3 0  1.125 3 0  6 0.375 0  2.625 3 0  6 -1.125 0  6 -0.375 0  4.875 -3 0  6 -1.875 0  3.375 -3 0  1.125 -3 0  0 -1.875 0  0 0.375 0  0 1.125 0  0 1.875 0  6 1.125 0  6 1.875 0  4.813017731148975 0.9677363687196439 0  2.807371623148303 2.264962208227767 0  0.3692953377255688 0.7436406761680247 0  5.615625 2.615625 0  0.9395725521479794 0.9812935874921043 0  1.390920759130215 1.238984550166515 0  0.9588795022085095 1.672288500195331 0  0.87712392565124 -2.641031728267331 0  0.3665732993114588 -1.532068934251388 0  1.841944504733106 1.591700334213738 0  4.832970185136452 0.3385359233091246 0  4.169083540479082 -0.5746148619765254 0  5.281697083409333 -0.2046640461936881 0  4.072845380968044 1.784516523483641 0  1.293029195762321 -1.543079049035419 0  4.878733886054284 -1.720697370582964 0  3.609167475697567 -1.687579152754035 0  4.836981942878573 2.222259978217028 0  4.204938267037067 -0.9128589669335569 0  5.183079748175263 -1.111742407358677 0  1.469404041858679 2.654509729682302 0  1.22880920402559 2.273525645756405 0  4.566761045622856 -1.414165869120005 0  4.531680518427715 1.606803989975667 0  1.918929241273175 2.27471131819245 0  3.590183783343969 2.184680610175416 0  1.85683899811842 0.4533569963423589 0  1.173935704088662 0.4636872214645547 0  2.116602160898525 -2.207718541460878 0  4.51821874648995 -1.042568353750147 0  2.721551512787618 -0.1859357475290837 0  5.294921875 2.001953125 0  5.288671874999999 2.670703125 0  2.199940744527116 0.7756512213396931 0  4.090519467638897 1.163401080812838 0  2.298177083333333 2.670581371753247 0  2.484362362207526 -2.687319997637033 0  3.300530569898859 1.207053005217563 0  3.936078051808127 -1.362164062673065 0  5.341218841330105 0.5689885832563615 0  4.226314635599414 0.5638853401248238 0  2.524510956818563 1.635483567726497 0  0.3219546452225031 1.389066019009203 0  3.139061555368706 -0.3133905221155423 0  3.145569907612562 -0.6461828528638952 0  3.701427442033566 -0.2272880199383185 0  1.686782510365738 -1.934662341426927 0  2.427696494631844 1.944064773844184 0  3.901817839425732 1.422433381251312 0  2.356489883772755 -0.2025512972825912 0  4.820757576351118 -0.01647699434507374 0  3.064415631228375 1.809719380809516 0  4.643002705009462 2.69782572459795 0  4.31624250429496 2.728112685900672 0  1.520100694408069 -1.314302747998057 0  3.754559308601717 -0.5375020107416889 0  0.25 -2.0625 0  0.8125 -1.826636904761905 0  4.861738621091127 -0.6367294570749906 0  1.545149590740081 2.015832101819233 0  3.857113324620078 0.04127675193819436 0  0.3162874907704933 -0.864918315983958 0  4.21293081604216 2.352874368135467 0  3.123697687162562 -2.708090473740421 0  3.415275466010259 -2.202892416689829 0  3.601103065320932 -2.727566580522146 0  1.558629964945672 -0.5289921609136927 0  3.324859026263307 -1.198136798699183 0  2.424350759683917 -1.092246517929194 0  2.789248065239812 0.8954629970670158 0  0.8882026075771248 2.364936378889839 0  0.8066140242673685 2.679750706449505 0  4.504454978490482 0.4491616076730165 0  4.26881784709759 -0.009649566552704852 0  1.313479173834523 -2.758675889510418 0  1.120577805361368 -2.179971784090952 0  3.734048623985226 0.8602850349907256 0  3.527828882622877 1.432983527791925 0  1.959527908877504 -1.578124930685265 0  0.7602573574724077 1.220872343399509 0  0.6691217533356228 0.8531987603309893 0  1.877213035764122 -2.564340152892596 0  3.304349402914068 2.552016594979913 0  4.285565286275464 -1.569057178671076 0  4.227521511146333 -1.876903861267543 0  5.34375 1.40625 0  5.71875 1.59375 0  1.56245959534423 0.766197796710638 0  0.2458241530773257 2.4375 0  0.2794123857609179 2.138568368155198 0  5.754175846922674 -2.4375 0  5.720587614239082 -2.138568368155198 0  0.6472458227887359 2.124973059628837 0  5.124241021325378 -2.352544055105642 0  5.189172233440652 -2.675873509996353 0  5.364643151640443 -2.12768524739804 0  2.298896485720138 1.348573610321417 0  0.6008689899200503 -2.745193425346304 0  0.307092513690391 -2.651812055231556 0  0.2683745826107009 -2.363146293324415 0  0.5223214285714285 -2.165178571428571 0  0.5169611136983336 2.740349995819724 0  5.607469108596883 -2.699891746740618 0  2.138439274270545 1.947386893596098 0  1.25507379660067 1.953406658386351 0  4.135759889512124 -2.476847355718572 0  2.548249345531056 -1.538893887888457 0  2.771010284190282 -2.05339728351
[...]
<CellData  Scalars="f_26-2"> 
<DataArray  type="Float64"  Name="f_26-2"  format="ascii">3.6849796958387019e+14   -9.0234332965197812e+14   6.8459953663226250e+14   -2.3943347726342669e+14   -3.1357862725867375e+14   -1.7333200502209967e+13   1.3987288767772388e+14   -1.5020167915184531e+14   -1.6034224734994695e+15   3.8054568018976656e+13   -2.5069380717800950e+14   6.2336262150536975e+14   -1.2382447691055902e+15   6.8822151072514625e+14   1.4399381206281980e+15   -4.4900373860154419e+14   -6.5638105509176112e+14   5.5700301308720300e+14   -1.7497340292638062e+14   7.2600069316238175e+14   6.6160076610989250e+14   -3.4072519053754094e+14   -7.5740556152571538e+14   -1.1511225316863142e+15   -1.5056125193898178e+14   -7.6657623053978512e+14   -3.1857686747754919e+14   4.5347456676748531e+14   1.2998679157189764e+14   -7.3272964784193975e+14   -7.2399292481824288e+14   -1.7790959461513812e+15   -7.9934869117893425e+14   -1.1792696557353245e+15   -8.1112672436585425e+14   6.0800796236110712e+14   2.0181024193034750e+14   -2.5252242658982362e+14   -7.5326852971471875e+14   4.9344781827420844e+14   2.4741895220306862e+14   2.0039791639174203e+14   9.5759664982847075e+14   1.2665215871494335e+15   2.7903124932538847e+14   8.7894335216638688e+14   8.9107104947349675e+14   -9.9976345655599700e+14   1.0153660107981550e+15   9.3297483021263688e+14   9.6519603775079038e+14   -4.0709328441653750e+13   -6.5996558584005712e+14   6.9257701688216250e+14   2.5637488143330203e+14   9.1327057882630775e+14   3.4165722766732275e+14   1.2254003537979385e+15   -1.5764379781784255e+15   2.7399813852796523e+13   6.0442712882692112e+14   -1.5510356766603682e+15   -7.2997517384948516e+13   2.0682672448872812e+14   -5.8543362088433225e+14   1.9514450091546206e+14   -2.0732591850791318e+15   -9.6889451560236375e+14   8.4697278350846125e+14   -5.9856103114794362e+14   6.6944035415956200e+14   -8.4824804352209047e+13   -1.0676519877834192e+15   -6.9056556552324288e+14   1.6884906204086650e+14   -4.1471090433166575e+14   4.0983601751621375e+14   5.8304140850110812e+14   -2.3780438327076525e+14   -8.3257532096302138e+14   -3.8428375806216519e+14   -9.3789896798739891e+13   1.2852915641995017e+14   1.7741202024469506e+14   -6.3240847946901650e+14   1.5631832375684268e+15   -1.4701274733551538e+14   -5.0708976063006744e+14   4.2933925827917675e+14   7.5206460621156525e+14   -1.3148751246301440e+15   -2.5386656407077006e+14   -4.8392995217549431e+14   -1.5173860678477469e+14   -4.0016046991915056e+14   -4.6364550544675662e+14   -2.9599604946930794e+14   8.6596418321873662e+14   4.9931424109159019e+14   -1.0490306849666778e+14   1.1956377026144988e+15   1.4387023132834158e+15   1.4760523786066002e+13   1.1020156246350580e+13   -5.6338322588911625e+14   -1.5514123527813078e+15   -2.6777110272551912e+14   -2.4293678433438444e+14   -3.4998277719053588e+14   5.4587612872295025e+14   1.1654360504920291e+14   6.4866085234230712e+14   -1.3059146096778980e+14   1.7635410184666216e+14   -2.4844301181531200e+15   -8.8448977674213775e+14   1.2626487897003214e+14   9.0088426178783484e+13   -2.6978913415545712e+14   -1.1504827488982438e+15   5.7469446708473650e+14   -3.3405082996431425e+14   6.0726162037945038e+14   -1.3670481321021962e+14   -5.1630025396492431e+14   -8.7661229483444962e+14   7.4442730741685300e+14   -5.8895751614111555e+13   -2.2113820045605952e+15   -8.2899135105088162e+14   -5.4963212871441756e+14   -5.5671859420882194e+14   -9.7471432568830600e+14   1.9108155446261650e+14   -6.0127298212512575e+14   -1.2418891608323375e+14   -1.8456959486462778e+14   -4.5834211700234070e+13   -2.3524004745462238e+14   4.0714474481590750e+13   -2.2518060654255812e+14   4.9856777375010238e+14   1.2839652321626050e+15   1.0978720621697603e+14   -9.5434960733368975e+14   -1.6582836963988169e+14   5.8714518697840400e+14   -8.7283871592036350e+14   -5.8385709142034700e+14   3.9449439742864262e+14   -3.7905776688196194e+14   -1.8005785385476628e+14   6.8222261526941766e+13   4.3092735752085944e+14   5.8560148514702612e+14   3.7308499911281788e+14   9.2353229201569088e+14   -2.4839325798169812e+14   6.5872117192005912e+14   3.6521848584397681e+14   -3.6854773161580112e+14   1.6220109410614740e+15   1.2081415197069678e+15   -6.1893075628551888e+14   4.5489253640979188e+14   4.2022142668934912e+14   8.7739060128502203e+13   -5.2395892131801019e+14   -8.3011126983130400e+14   3.1914052601675494e+14   1.2633914155213372e+14   -2.8904141923199900e+14   -8.2770498773588875e+14   1.7712603528799106e+14   -4.6973741815806369e+14   -1.3217080170226285e+13   -1.9088260256206108e+15   -8.5085468981681438e+14   -8.7986900326644850e+14   5.6403839480396250e+13   2.6277365017111409e+14   -6.1191357508294000e+14   5.9114694610342300e+14   -3.4302099885659556e+14   -2.5530254218337297e+14   -5.1120053248390000e+13   -6.5029181894607475e+14   -1.2765693267162755e+14   -1.4336657309615782e+15   1.3751942286817064e+14   -1.3171401608148325e+14   -1.1419773661011668e+15   -1.1012199797323741e+15   1.3822447122305472e+15   4.0987975112198494e+14   8.1849146206810325e+14   -1.5718122694088647e+14   5.8103438952361812e+14   -6.6754740503331725e+14   -2.1129237807708666e+14   -9.1354552269517300e+14   -6.2731025606359680e+13   3.4142204515949119e+14   5.6957121677635050e+14   3.9759165058661744e+14   3.4582470428942008e+13   -1.6295167965190962e+15   1.1013903755122600e+14   -1.5294237282191362e+15   -7.4210019760906988e+14   6.5585333975693850e+14   8.5504769747988838e+14   3.4687676325847656e+13   -4.9469744492190588e+14   8.8218129067917912e+14   1.5764564008236394e+14   4.3992888924736394e+14   2.5134843858850178e+14   1.5246516643463882e+15   -5.7649233418338012e+14   -3.5867607188673862e+14   -1.3841956151298430e+15   -9.2995249710384912e+14   3.1115196511295462e+14   -1.2620601887634414e+13   2.8177081767500012e+14   5.7840235738118788e+14   6.9731116348834388e+14   7.6980627620992197e+12   9.4193039421722738e+14   1.0046394114010042e+15   -9.5745131874248312e+14   -1.4199792932248138e+15   -3.9875156543072250e+14   -6.0000332750872025e+14   -5.1769490836590650e+14   5.6909119686433850e+14   3.7733068835053881e+14   -6.9007420555947275e+14   -2.7541281587677050e+14   -5.0376035384097794e+14   -1.7134316993997344e+14   5.9597821383811925e+14   2.5097232861101128e+14   -7.5591132733512075e+14   3.9669147394690531e+13   -1.0644809423734474e+15   2.0954191392176809e+14   -3.9383983644718531e+14   2.4225873297084591e+14   -5.5840803139183125e+14   -1.1397288117201938e+15   7.6561151131379316e+12   4.6932710910008975e+14   -1.1153610459986056e+15   -8.2523325989239962e+14   8.9012404629852172e+13   -2.0275112165518198e+15   -4.5721030971928500e+14   -3.6149324273685575e+14   1.0506942480654120e+15   4.7434793915933425e+14   7.1853039673925900e+14   3.6888712800521575e+14   1.2193499870871180e+15   1.1070014249740644e+15   1.0116435252633742e+15   -8.0470141330011088e+14   -1.7217481372271705e+15   5.8944636884876838e+14   7.9714535071502062e+14   -8.8217589645202625e+14   -8.7315900795334525e+14   -5.7511203532256675e+14   -3.4462003970164006e+14   -8.3877765571590800e+14   -4.8313141187326144e+14   6.5044002595536400e+14   4.3147568675355469e+14   -8.9254035553301688e+13   2.6941810792081044e+14   -3.5657170421426000e+14   2.6612127745304394e+14   -7.7004140924461825e+14   -1.2532394621516830e+15   -3.3927397191137856e+14   -3.1249790333294119e+14   -5.8438811299278162e+14   1.8855623172432372e+14   -6.6690895664994450e+14   4.3005712604123769e+14   1.1302534637541138e+15   3.4381118343218494e+14   4.7161882266527450e+14   -1.4932059982401368e+15   -6.1642735181289156e+13   8.4609261236865500e+14   4.8129071310693550e+14   1.9393954224624400e+14   8.3610550795927825e+14   -2.8900183993089235e+15   1.5973610452223140e+15   -8.9510561862462912e+14   -2.9963296186298869e+14   -5.5306834675276375e+14   -7.5017471790411662e+14   -5.1481051109368269e+14   -5.7516855070971961e+13   -3.0138087770001994e+14   -4.6596385719694619e+14   5.2255590965561881e+14   -4.8533847274598100e+14   2.2771737006864156e+14   6.1069633061129775e+14   6.7371898406370438e+14   8.3754099528882162e+14   -4.7933811829937112e+14   -1.3506290913777427e+14   -1.3789594907066070e+14   -8.7998111411594203e+13   -3.3242629842632612e+14   -5.9855425112830025e+14   9.9523428076587900e+14   6.3518542049258625e+13   -1.0866172810673361e+15   2.2527982890261562e+14   -1.2093029588513155e+15   -4.9291020766649194e+14   -1.4604357949346920e+15   7.9356443474538219e+13   3.0559595058089144e+14   8.0563195115509450e+14   1.3152894707121258e+15   -7.2064946481343359e+13   2.6133022174463628e+14   2.4075759979269324e+13   -1.2626429806773152e+15   6.8868222944010850e+14   -2.5712889518792900e+14   1.2444131297421294e+14   3.6121061434661388e+14   7.8405458965510425e+14   1.7612526011331941e+14   -1.3535314836890427e+14   8.6000701057617562e+14   -1.0969314698214779e+15   -1.0039177087811505e+15   -1.0687985743123904e+15   -2.0206416656328831e+14   -3.7365579095437988e+14   -2.7591002966112119e+14   -4.9750770760938734e+13   3.6818372485275531e+14   -4.1350672045231062e+14   -3.7604391447468900e+14   7.0242828373399075e+14   6.1302948575320750e+14   -2.8184781564581480e+13   1.7202826955746150e+15   6.2216910258775425e+14   8.9069536943632288e+14   -1.4363782829533953e+14   4.2963172875592156e+14   3.8873608448557812e+14   -2.8789113754949269e+14   -4.1922179642791969e+14   -2.1996539405240319e+14   2.9051525003758194e+14   3.5827144467136088e+14   7.3934665537040281e+13   -7.7979766999512575e+14   1.4345549856043710e+15   2.4523848477417938e+14   5.0259356523665664e+13   4.6846035553061975e+14   -1.1141937501140342e+15   -2.3091108176527695e+15   -1.2268858381946109e+14   -1.0967107497608061e+14   1.7071667910132584e+14   6.9247752710104600e+14   1.4315199211679220e+15   5.4505432874782456e+14   6.2336146617019600e+14   2.0910794649738400e+14   -8.7061914592485625e+14   9.9173235557316672e+13   9.2637510562604234e+13   3.6209302844837025e+14   -4.3637876716259475e+14   -9.1947017288349156e+13   -3.2580211178354550e+14   6.4802386199778150e+14   -4.1566368139451562e+14   -2.5856888883341562e+14   -6.1689757498866588e+14   -8.8034693305645450e+14   -5.7966624474486738e+14   2.3788334776612584e+14   5.8149361913693325e+14   9.3126680155471050e+14   9.9699132879850344e+13   -5.4116286056407612e+14   -5.7965194697103000e+14   6.3901734400595350e+14   -3.5674775074531625e+14   4.0080271424981188e+14   -1.2981290211673565e+15   -8.0829866290064150e+14   -5.1547649359895075e+14   3.1971351192222362e+14   -7.7094498732015138e+14   -1.8118156275693140e+15   6.2983372140374812e+14   2.4368764668855962e+14   3.6980990126942475e+14   -2.4192587310442231e+14   -6.9526847372411450e+14   3.0409118358615025e+14   -6.4398603731425725e+14   4.4062085488786194e+14   -7.0919073454129462e+14   -2.0661808635222166e+14   -7.0897597509379238e+14   5.1657591467015631e+14   8.8246777993438600e+14   9.4385050892514112e+14   -5.7530893251816258e+13   -7.9458564664224812e+14   -1.3133779747697380e+15   -5.9562258338590950e+14   -6.9943335828081988e+14   -1.8689094837661316e+14   -6.1955565258196975e+14   -1.9160100153908158e+15   -1.2805725811550669e+14   -4.1714434018828394e+14   -2.1922481134585242e+15   -1.2788984019719085e+15   -5.1382083514405481e+14   -1.2170889846486852e+15   -1.5569672119338348e+15   -2.6805686751601947e+14   2.3928464435038162e+14   -1.4810474885818788e+15   1.2093680880999678e+15   8.4224421340972906e+13   3.5778310318214512e+14   -1.2978622572376428e+15   6.3055331640124462e+14   -1.6082919049909600e+14   1.1664147841544192e+14   4.5112549034925320e+13   -1.0364105026514210e+15   2.1251880131521719e+14   3.1265892402510688e+14   -2.9550734883292938e+14   -4.0809579480531188e+14   -8.6093385748499688e+14   9.0817268963411700e+14   -8.2729749270396641e+12   -1.3263448207625750e+14   1.0928242095714175e+15   5.6957998444379912e+14   -8.5290130945485500e+13   3.6154915162661806e+14   7.5726238113097675e+14   3.1886734108382875e+14   -3.3205653442618112e+14   -1.1570287581833848e+14   -4.4292956337148500e+14   -1.5234879881115028e+14   -1.2129950125141727e+14   -3.8287957292863544e+14   -1.5549554343559584e+14   -7.6614865523635325e+14   -1.1155119560537909e+15   -8.9703151398580200e+14   -2.6512030552204184e+14   -7.0468202638027800e+14   -1.3139873161972705e+15   4.5936340172362438e+14   5.4395061636562550e+14   2.3985788912466880e+12   6.7744688433180398e+13   -3.5385425643625325e+14   -4.4833863776288850e+14   3.1359306185349412e+14   -9.9793475081845962e+14   -4.7549052242938488e+14   -5.7868292108939112e+14   -1.8307400394716731e+14   -1.1896348675034832e+15   -4.4923960861101969e+14   -3.1702526007113169e+14   -4.9978859219774794e+14   -4.9897381456248462e+14   -1.8064984560762697e+14   -1.3234197625966510e+15   -1.5555869841848738e+15   -1.2140813551816255e+15   -1.6822567206494512e+14   -6.1710775111599700e+14   8.6318151666472188e+13   2.5492532075547162e+14   -2.3845543508701210e+15   -7.9912661418228425e+14   -9.0657104274544562e+14   -1.8880001888613862e+15   9.8420017190402391e+13   4.2008253906528606e+14   -5.7740079451070950e+14   -4.4331126244335081e+14   9.1243063228014922e+12   7.9150588903935500e+14   -7.8129382001849962e+14   1.6739522114257078e+14   3.2513182267455812e+14   7.7202420987199025e+14   1.5088330987073031e+14   -1.2933397029492785e+15   -3.0766282322959344e+14   -6.4862747036678125e+14   -7.9433653246467525e+14   -8.2063078250954588e+14   -8.4808681661728450e+14   5.0520023484768394e+14   -1.5473849387981412e+15   -1.4665664415920641e+14   7.0332607095484538e+14   1.1316845906055205e+15   9.8134994312019575e+14   6.8489948461355125e+13   3.3965888691007219e+14   1.9377894711234591e+14   -6.0448070833633938e+14   -7.9945880737852112e+14   -8.6725444613621738e+14   -2.2607716634804420e+15   -8.7453444095951962e+14   -2.4756941210014494e+14   2.1700056575924368e+15   -3.5617883939652756e+14   1.0650275878698100e+13   -4.7483137519474492e+12   -5.2387387897850281e+14   -1.2975859865826738e+15   -2.6775703350922610e+15   -7.7321540019789312e+14   -2.8725042897400531e+13   5.7456328515058475e+14   -4.1229883402606181e+14   -1.9678216883105485e+15   -1.4103120229941830e+15   6.3053725636213625e+14   3.9843519825888069e+14   -2.0007337668798609e+14   -1.6575986780033609e+14   -1.1803479506413282e+15   -1.2146217337955655e+15   5.5973397996996700e+14   8.5691278967029775e+14   1.1953641573567140e+15   1.2890597727169035e+15   -2.9590991760230862e+14   -1.0670266627880030e+15   -4.8382770833904569e+14   7.4302794113669225e+14   2.2278306532263356e+14   -7.9618665085162050e+14   -1.4244322051961255e+15   -8.1844238861160250e+14   1.4023431557534828e+15   1.6994752073176588e+15   1.1080667095900878e+15   7.7546971380870012e+14   -1.1861382993827292e+14   1.6825395370583826e+13   -5.9797478277883450e+14   -6.9796368795832712e+14   -1.2969464820088760e+15   -1.1448839507600798e+15   -1.3483108889298832e+15   -1.0660724459901191e+15   1.6842591544126620e+15   8.4111772876992775e+14   -3.9538718373041088e+14   -3.0455929365608575e+14   5.3523497558774331e+14   1.4960519885287640e+15   -7.1069914818052600e+14   3.5943735066298562e+14   -4.6771194308391820e+13   1.2481974756593405e+15   -5.1939277648953275e+14   -4.0736434748677588e+14   1.2595487000201500e+14   -1.0883594686722595e+15   -6.5352457134643538e+14   -4.3717030967997867e+13   1.2200694633682477e+13   2.6308233352002688e+14   5.7615707540690812e+13   -2.6700620407301650e+14   1.0848805739210642e+15   2.3797631692410181e+14   7.0929037363199075e+14   1.4024200520928188e+15   5.0114491539978781e+14   3.0668934330515056e+14   -1.1527080005159300e+15   -3.3480230329639606e+14   -8.7428371908887200e+14   -2.1868495291764145e+15   -1.1088287601791430e+14   2.1064318845336733e+12   -4.8153230461647362e+14   -3.8703865318330681e+14   4.6523220733826531e+14   1.3134746632664278e+15   -1.3658594608374525e+15   -9.3597514680266812e+14   2.0133567935065888e+14   -1.0587100864685990e+15   9.2229317790666025e+14   -3.7811848865189519e+14   1.0763613925064794e+15   2.1313871558676978e+15   7.4947578066320175e+14   5.9232643075065127e+12   -2.6830126112422641e+14   -8.7575790895019800e+14   3.5389945698408725e+14   1.2840199895149090e+15   9.3573863719005275e+14   -6.4940024263579638e+14   7.6379607736751906e+13   7.2500421033864425e+14   1.9041228607822035e+13   2.3767250497435190e+15   -3.3941437563346457e+13   1.0845190214310716e+15   8.2508797059177812e+14   -4.0012240778404662e+14   4.0627495914317325e+14   8.3042623843672156e+13   -2.8797235917657412e+14   -1.0193356902241842e+13   -6.4443913730735712e+14   -1.0271991625026604e+15   1.2149619482609375e+13   -4.1789834389313731e+14   1.1066013288701852e+14   4.8791097405159012e+14   6.4580817393504925e+14   1.4755258919280895e+15   5.3532325630289869e+14   1.0973027417009315e+15   -4.7406929795155131e+14   1.8190118284835644e+14   -1.5937747996025578e+14   -8.6540605046783625e+14   -1.2401987543615438e+15   -7.9301417751747488e+14   -1.2718932722454732e+15   -1.7123540467092353e+14   -9.3636003670133362e+14   3.4264435513139481e+14   6.6660467491103738e+14   1.1005592906771806e+14   4.6057174624386600e+14   1.2574260360421425e+15   -1.1419901837689005e+15   -5.6809607864226412e+14   6.9746831890276788e+14   5.3259541851237419e+14   -1.1589326711200806e+14   2.2891448931998319e+14   1.6819421831032269e+14   6.9240779865690525e+14   -7.5923624791089234e+13   -2.4146084520406919e+14   5.4272342722484070e+13   -1.5497711991405241e+14   -2.5079131951532888e+14   7.8820406379823875e+14   -1.0925167685598048e+15   -9.5732885873026788e+14   4.2526176816758644e+14   -6.7092335098921862e+14   -3.7123029023914750e+14   5.8675329639795600e+14   2.3223974823969156e+14   -8.1500002367753016e+13   -5.3173243802395969e+14   -8.9209294427342588e+14   4.2389701544793988e+14   -2.4133340333997525e+14   -2.0371047044002900e+14   -2.7742912235230250e+14   8.5526857298387500e+13   -7.0451463791732788e+14   1.2297861400029550e+15   1.2836499954520740e+15   -7.0718960919653862e+14   -9.6621963888667450e+14   -1.5002375175472206e+14   3.3577063121997462e+14   -4.9602736965750925e+14   3.6095352129721850e+14   -1.4968246113964228e+15   -4.9485891887623869e+14   -3.3163692516629969e+14   -1.0466605028892086e+14   2.7051065542164006e+14   1.6325291444039306e+14   -3.9043985827258412e+14   -6.3197652466871700e+14   -2.5216917818058691e+14   -1.2453467205351682e+15   5.8412801674798000e+14   6.4082696969731425e+14   -1.1605525273942412e+15   -9.0029747055765662e+14   -6.9044227054950612e+14   -2.1496318874907284e+14   5.7615176532616086e+13   -2.0629081697508909e+14   -1.2334080859815938e+15   -1.5304888289963415e+15   -2.4086495709459594e+14   -6.1021708342160662e+14   1.9739296809858319e+14   -1.1877609391071069e+14   3.0573778401638500e+14   1.6512395074294095e+15   -2.4321396461536835e+15   -1.1344592914355140e+15   -9.0615753325731212e+14   -4.3626877694831919e+14   -1.0523722122048292e+15   -4.2231975894244450e+14   -3.6492336218543469e+14   -8.2142024827912350e+14   2.2239495939372406e+13   -6.5921126329677562e+14   6.8855218429026500e+14   4.5833356828784484e+13   -6.1493533449850400e+14   -1.0781598718784111e+15   -1.2822077205356585e+15   -9.1944768087915588e+14   -7.4952993881408688e+14   9.4436767414778488e+14   3.0312572277687425e+14   6.5976977388626367e+13   -1.9867234006926755e+15   -9.8106014969871250e+14   1.0611288604668258e+14   5.5254456153811359e+13   -6.5236296698913300e+14   -1.0556515091585202e+14   1.1308954048718667e+14   9.6808591998092662e+14   -6.9193825730854538e+14   -6.4863596589002000e+14   -1.0701736401032366e+15   -1.3282397137083480e+15   -6.0742920157693175e+14   -5.8891736857821512e+14   -8.3484487470236812e+14   -5.7006859450249488e+14   -8.2794969109298650e+14   -5.6484249013522480e+12   -4.2642923442400394e+14   -4.9869422591762825e+14   6.0532659761050250e+14   9.7656724626822112e+14   1.5001474331317353e+14  