<?xml version="1.0"?>
<VTKFile type="UnstructuredGrid"  version="0.1"  >
<UnstructuredGrid>
<Piece  NumberOfPoints="387" NumberOfCells="708">
<Points>
<DataArray  type="Float64"  NumberOfComponents="3"  format="ascii">0 3 0  0 -3 0  6 -3 0  6 3 0  3 -3 0  6 0 0  3 3 0  0 0 0  3 0 0  0 -1.5 0  1.5 -3 0  1.5 3 0  0 1.5 0  6 -1.5 0  4.5 -3 0  6 1.5 0  4.5 3 0  4.25 -1.25 0  1.75 1.25 0  2.25 -1.5 0  4.5 0.75 0  1.541666666666667 -0.2083333333333333 0  3.219827586206896 1.521551724137931 0  1.125 -1.875 0  4.875 1.875 0  0.8702651515151515 0.631628787878788 0  2.25 2.214285714285714 0  3.316176470588236 -1.904411764705882 0  5.214285714285714 -0.75 0  5.03125 -2.03125 0  0.96875 2.03125 0  4.041666666666667 -0.2083333333333333 0  0.8205128205128206 -0.9134615384615387 0  3.942582294752138 2.189194098250713 0  3.061487638533674 -0.968243819266837 0  2.192708333333333 0.4427083333333334 0  4.157850026972511 -2.182329047049442 0  2.331456616463011 -0.5285296485744057 0  3.654761904761905 0.5654761904761902 0  5.25 1.125 0  2.563673341677096 -2.280663329161452 0  5.126674107142857 0.1283482142857142 0  0.75 -3 0  0 -2.25 0  6 2.25 0  5.25 3 0  0.7680051888903191 -0.1384245958639337 0  1.617229471026718 -1.006949429867069 0  4.218940341429579 1.468686552856807 0  3.75 -3 0  2.25 -3 0  0.75 3 0  5.25 -3 0  6 -0.75 0  0 -0.75 0  0 0.75 0  2.25 3 0  6 -2.25 0  0 2.25 0  3.75 3 0  6 0.75 0  1.787573018358365 -2.279142327213878 0  3.195025188237337 2.273430909158844 0  2.528159645294386 1.151699106559287 0  1.041598427383826 1.322848427383826 0  1.520951704545454 0.4634232954545453 0  1.580357142857143 2.325892857142857 0  4.919642857142857 -1.361607142857143 0  4.54981623521892 -0.6483700862895494 0  2.99317863826574 0.6697091957925523 0  3.450169349029507 -0.4574865881858001 0  3.605016126014028 -1.323102984840902 0  2.745144658907412 1.882241931337371 0  0.4898065586600511 1.092777516238393 0  0.5 -1.875 0  1.217028489597945 -2.469323836800685 0  1.659912685567181 -1.604738056701542 0  5.4375 1.6875 0  5.34375 2.34375 0  4.52741779500503 2.384139265001677 0  3.375 -2.514804579549941 0  0.5446428571428571 -2.455357142857143 0  2.766554087216865 -1.745795909102064 0  4.525516559010988 0.1490283123570637 0  3.87554132162248 -0.8280516069565407 0  4.53622906132958 -1.76963146596888 0  0.4243951612903226 1.875 0  0.554851858345021 2.446861709948876 0  5.575604838709677 -1.875 0  5.445148141654979 -2.446861709948876 0  4.875 -2.575604838709677 0  1.440573466105381 1.721823466105381 0  2.193519495405082 1.631799415080963 0  5.472630128027442 -1.330813078900983 0  4.750126894286386 1.343813447143193 0  5.607142857142857 -0.375 0  2.625 2.607142857142857 0  0.3921763197810531 0.375 0  5.60901753622775 0.3750000000000001 0  1.125 2.613454943235572 0  3.701856738980915 1.163867513386733 0  3.736112850688509 1.696746876851408 0  3.519183195491339 0.06065128742606851 0  3.973620778217027 -1.693401606145563 0  0.8125 -1.444978632478633 0  1.256657745408029 -0.6381828923025001 0  0 -1.125 0  5.019997778514942 0.6475044429701156 0  4.125 3 0  1.285569332703024 0.8955310332120207 0  0 -0.375 0  0.4638922275641027 -0.5625 0  2.056635259780241 -0.07226025978024064 0  2.130475508371123 -1.000827820434028 0  2.677484372338113 -1.267299126394495 0  2.848680878891876 -0.4956836878192376 0  4.937901885089369 -0.3340245904575954 0  4.393563081308854 1.919544166973803 0  4.053859126323572 0.2813938488760716 0  1.181051704329518 0.1167440895674965 0  1.971354166666667 2.607142857142857 0  4.875 3 0  2.519350561152006 0.08093582719875507 0  3.139443301924015 -1.442524927271905 0  6 2.625 0  1.849169256239503 1.945480934753207 0  1.867196483071171 0.7892354369530077 0  1.192506522009051 -1.184888428863342 0  3.375 3 0  3.603234392481833 2.536866305538572 0  3.846752908916648 -2.537707634073423 0  2.014339897513945 -1.886932065281681 0  4.038392037966526 0.8363324773944992 0  4.421242701722609 -2.552534687860327 0  3.715389848650903 -2.108856956172843 0  2.985668138820625 1.127780908772207 0  0.4500794934449803 -1.173696061598557 0  3.366760888116476 0.8891914618875614 0  1.869163043700093 -0.6107175804171328 0  2.175114838273305 -2.53928723780967 0  3.014417665538299 -2.241523065744933 0  2.625 -3 0  2.819968145332426 -2.617202329573456 0  5.625 1.3125 0  5.563263538826679 0.814027077653358 0  5.625 3 0  2.550041671270923 0.7074928970804664 0  4.014583091741168 2.59891853892166 0  0.6440729668673318 1.499523832583132 0  5.219449799568244 -1.660557808485412 0  3.474012636702472 -0.9300738420779746 0  0.8125 -2.142857142857143 0  1.875 -3 0  4.945010515846405 2.554471797033147 0  2.611388969012422 -0.8478354915063726 0  3.223746055611014 0.3371683159691745 0  4.843939757110898 -0.9483610977948225 0  4.66556954816842 -2.220888354477256 0  4.125 -3 0  4.448108395110625 -0.2524000502731018 0  5.63671875 2.05078125 0  2.822484133964224 1.491327727709286 0  3.378213092764193 1.903125093887009 0  5.607142857142858 -0.9231200445788541 0  2.12639693023183 1.100450516019641 0  5.625 -3 0  0.375 3 0  0 2.625 0  6 -2.625 0  0.3931307155906299 -0.01856779822591927 0  0.7651723094668359 0.253768144801553 0  0.8549199714190221 -0.5218333744252657 0  1.421989550604507 -2.133299471886336 0  1.582611957351803 -2.615166692128227 0  4.420331038793115 1.133144382396504 0  0.375 -3 0  0 -2.625 0  5.078156723571596 1.54697017071479 0  1.877250715260938 -1.288801575378032 0  2.409169073010687 -1.916147168931784 0  1.146151077069952 -0.268000681695328 0  1.726784828652036 0.1335728643263411 0  2.745628549924675 0.3838821021397905 0  3.011490900297165 2.613625569196862 0  5.62463365164608 -4.137655439684362e-05 0  1.875 3 0  1.125 3 0  6 0.375 0  2.625 3 0  6 -1.125 0  6 -0.375 0  4.875 -3 0  6 -1.875 0  3.375 -3 0  1.125 -3 0  0 -1.875 0  0 0.375 0  0 1.125 0  0 1.875 0  6 1.125 0  6 1.875 0  4.813017731148975 0.9677363687196439 0  2.807371623148303 2.264962208227767 0  0.3692953377255688 0.7436406761680247 0  5.615625 2.615625 0  0.9395725521479794 0.9812935874921043 0  1.390920759130215 1.238984550166515 0  0.9588795022085095 1.672288500195331 0  0.87712392565124 -2.641031728267331 0  0.3665732993114588 -1.532068934251388 0  1.841944504733106 1.591700334213738 0  4.832970185136452 0.3385359233091246 0  4.169083540479082 -0.5746148619765254 0  5.281697083409333 -0.2046640461936881 0  4.072845380968044 1.784516523483641 0  1.293029195762321 -1.543079049035419 0  4.878733886054284 -1.720697370582964 0  3.609167475697567 -1.687579152754035 0  4.836981942878573 2.222259978217028 0  4.204938267037067 -0.9128589669335569 0  5.183079748175263 -1.111742407358677 0  1.22880920402559 2.273525645756405 0  1.469404041858679 2.654509729682302 0  4.566761045622856 -1.414165869120005 0  4.531680518427715 1.606803989975667 0  1.918929241273175 2.27471131819245 0  3.526908551984126 2.207147627530056 0  1.85683899811842 0.4533569963423589 0  1.173935704088662 0.4636872214645547 0  2.116602160898525 -2.207718541460878 0  4.51821874648995 -1.042568353750147 0  2.721551512787618 -0.1859357475290837 0  5.294921875 2.001953125 0  5.288671874999999 2.670703125 0  2.199940744527116 0.7756512213396931 0  4.090519467638897 1.163401080812838 0  2.298177083333333 2.670581371753247 0  2.484362362207526 -2.687319997637033 0  3.300530569898859 1.207053005217563 0  3.936078051808127 -1.362164062673065 0  5.341218841330105 0.5689885832563615 0  4.226314635599414 0.5638853401248238 0  2.524510956818563 1.635483567726497 0  0.3219546452225031 1.389066019009203 0  3.139061555368706 -0.3133905221155423 0  3.145569907612562 -0.6461828528638952 0  3.701427442033566 -0.2272880199383185 0  1.686782510365738 -1.934662341426927 0  2.427696494631844 1.944064773844184 0  3.901817839425732 1.422433381251312 0  2.356489883772755 -0.2025512972825912 0  4.820757576351118 -0.01647699434507374 0  3.064415631228375 1.809719380809516 0  4.643002705009462 2.69782572459795 0  4.31624250429496 2.728112685900672 0  1.520100694408069 -1.314302747998057 0  3.754559308601717 -0.5375020107416889 0  0.25 -2.0625 0  0.8125 -1.826636904761905 0  4.861738621091127 -0.6367294570749906 0  1.545149590740081 2.015832101819233 0  3.857113324620078 0.04127675193819436 0  0.2479605082936806 -0.9375 0  4.21293081604216 2.352874368135467 0  3.123697687162562 -2.708090473740421 0  3.415275466010259 -2.202892416689829 0  3.601103065320932 -2.727566580522146 0  1.558629964945672 -0.5289921609136927 0  3.324859026263307 -1.198136798699183 0  2.424350759683917 -1.092246517929194 0  2.746461744851735 0.9398108087856579 0  0.8882026075771248 2.364936378889839 0  0.8066140242673685 2.679750706449505 0  4.504454978490482 0.4491616076730165 0  4.26881784709759 -0.009649566552704852 0  1.3125 -2.75919801263958 0  1.120577805361368 -2.179971784090952 0  3.734048623985226 0.8602850349907256 0  3.527828882622877 1.432983527791925 0  1.959527908877504 -1.578124930685265 0  0.7602573574724077 1.220872343399509 0  0.6691217533356228 0.8531987603309893 0  1.877213035764122 -2.564340152892596 0  3.32172153715047 2.685939810104955 0  4.285565286275464 -1.569057178671076 0  4.227521511146333 -1.876903861267543 0  5.34375 1.40625 0  5.71875 1.59375 0  1.56245959534423 0.766197796710638 0  0.2458241530773257 2.4375 0  0.2794123857609179 2.138568368155198 0  5.754175846922674 -2.4375 0  5.720587614239082 -2.138568368155198 0  0.6472458227887359 2.124973059628837 0  5.124241021325378 -2.352544055105642 0  5.189172233440652 -2.675873509996353 0  5.364643151640443 -2.12768524739804 0  2.298896485720138 1.348573610321417 0  0.6008689899200503 -2.745193425346304 0  0.307092513690391 -2.651812055231556 0  0.2683745826107009 -2.363146293324415 0  0.5223214285714285 -2.165178571428571 0  0.3925308914031174 2.699891746740618 0  5.607469108596883 -2.699891746740618 0  2.138365140930822 1.917102089073091 0  1.25507379660067 1.953406658386351 0  4.135759889512124 -2.476847355718572 0  0.5330865684534913 -0.8980875812659357 0  2.548249345531056 -1.538893887888457 0  2.67686064875775
[...]
<CellData  Scalars="f_26-2"> 
<DataArray  type="Float64"  Name="f_26-2"  format="ascii">1.3797349377989509e+39   8.8345502914953696e+39   8.0608796782598749e+39   1.9432165922042066e+40   4.2417572556559242e+39   6.6964150618948660e+39   -3.3124630486696372e+39   2.2762914519397265e+39   -8.5025664250293122e+37   2.0448721282812810e+38   3.5497611279178112e+39   -7.5257861342922747e+39   -2.9477493952639294e+39   -6.8277784451396300e+39   -5.0408452483430307e+37   -1.7221373643561645e+39   -6.1622214057072230e+39   8.8877622125341552e+38   -1.4100470017760223e+39   -4.2965704377251419e+38   5.4352915890608017e+38   -2.3956681553719948e+39   -2.0784596563825903e+39   6.7602858836944577e+38   1.7224991705707342e+39   -6.8591031486605732e+38   1.1032430228375533e+40   1.4930884619301540e+39   1.9293287503568130e+39   -2.1672851380826898e+38   6.4099964595984309e+38   -3.7219066717033355e+39   -9.0738990940505392e+36   -6.8453026492095443e+39   5.0681102507272974e+39   4.7788385451540135e+39   -1.4811087329863046e+38   4.2303497186885901e+38   -5.4649642642260679e+39   1.2830218084836952e+39   2.4993618069028158e+39   -1.2553523400229600e+38   -3.6233355051782230e+39   -3.9129936513399866e+39   -1.1837102130480422e+40   -5.3643760926478915e+39   -4.7378128072251776e+39   -1.4905198511361916e+41   8.1705586474892450e+39   -6.7347612525195666e+39   7.1272741821014902e+39   -1.0984164491155669e+40   6.3950076582542565e+39   1.2660487021171360e+39   5.2593755242728946e+39   4.6442051255629279e+39   -8.4143244196463792e+39   -3.8165948814328864e+39   -2.1774610812433866e+38   -2.6187024703827145e+38   3.8120186636369983e+38   6.0139498574848668e+38   -3.6828372925391848e+38   -1.2906443498912518e+39   2.5470254876607476e+40   -4.7282790112416122e+40   3.3968627585396651e+38   -1.9104278256929222e+40   -1.0658304479370019e+39   2.7802001155432453e+39   -1.3369360397645026e+39   -5.2640709225059153e+39   1.7550750056520812e+39   2.0651599238094771e+39   -9.4639286445756079e+38   -2.7124920411106750e+39   6.8330067431833777e+39   4.0796297636743524e+38   -2.2740315205013858e+39   -4.5681721144985718e+37   -4.6086594041609546e+38   -2.5941051042421509e+38   -5.0571472109942857e+38   1.0764335431626882e+39   9.1830477159431693e+38   1.7655735747573919e+39   -6.7872241083511998e+38   1.4440535315683466e+38   -9.5068622992459243e+38   -1.7649564657063269e+39   4.4522932813814320e+38   -3.4044450105122268e+39   -1.2909839920522765e+39   2.9288981613058080e+38   8.5413929076567662e+38   7.2685679328997568e+38   -1.4544291988826053e+39   -2.0745210335571341e+39   -1.1396468878902709e+41   5.0511370207769321e+39   4.6321296084132399e+39   1.4658578892484390e+40   5.1388368558197390e+39   6.8774843372815716e+39   -2.0494054042125003e+39   -1.0372690274287762e+40   1.7985881839230745e+41   -2.7999223355336978e+39   -4.3755034732266277e+39   1.9699860324869615e+39   3.1610411472424426e+39   -3.1798103144142689e+39   -2.6741414732163482e+39   -8.6194602548790048e+38   -6.5012613876299447e+38   2.0019872657215494e+38   1.2669056682062805e+38   -1.6677351121985546e+39   -4.0059822981188323e+38   3.4295136284312963e+38   1.4333186205223568e+39   -1.3901670828445804e+38   -2.1118962328042363e+39   3.4874978494422498e+38   9.8556560229763919e+37   -1.4386283402764588e+38   -2.8687354990048170e+38   2.9686791348693365e+40   -3.9939575688678576e+37   -5.0001910857403830e+39   -9.5658938536524161e+39   2.3386689955659092e+39   1.8607539605680276e+40   -1.2897323532462937e+39   -1.8450916775178270e+39   -2.2500234387636258e+39   4.1373893401123749e+40   1.3119283049730942e+40   -2.2202496839074656e+39   -3.6687983202148988e+39   -3.1101689241863034e+39   -3.5464072710676307e+39   -2.5059741215664599e+39   -9.5861520886287726e+38   3.0838018384486005e+38   -6.6666495603990818e+37   9.0296849074239730e+39   4.3703310242814969e+39   1.1599693703994109e+38   4.4214362743501511e+39   -4.6132416952808683e+39   -1.2045585575866996e+40   -2.7245387899316494e+39   -4.4054313442914660e+39   8.7856905814337471e+37   -3.3903286731859433e+38   1.2710576840332581e+39   1.4759888306696370e+38   -5.6670416423594932e+40   -8.6327804543017898e+39   -8.3590366597787393e+40   2.9130095133010862e+39   1.5552779204926499e+39   2.1547049961519160e+39   2.3768648752113072e+39   1.9988123660597499e+39   1.7728596010652615e+39   3.0189437586888776e+39   6.7567345705370903e+38   3.5659242997843388e+38   -1.7534112975239802e+39   -2.2327154796147846e+39   -1.0519489373813549e+40   -1.1150028417521219e+40   -2.1467658528551611e+39   -1.1704621520970790e+39   2.5730738577878611e+39   4.2330745710001936e+39   2.9294896916848543e+39   1.4549611309135926e+40   8.3931062636793174e+40   1.4201892451951058e+40   2.2355614954735980e+38   -3.9263899185935234e+38   4.8844443904879804e+38   1.3999924068734365e+39   3.0365336863591670e+39   -8.1672086697117553e+39   -6.1883205029014827e+38   -1.5917579064072968e+38   -9.4382403792835686e+38   -8.8438105308920768e+37   5.1308792007011315e+39   6.0294052641826596e+39   3.6251924530120524e+39   4.6490758696099696e+39   6.0002997865135942e+40   1.0394722463551207e+40   4.2033617609032595e+38   3.7444883400172946e+39   3.9573808807464975e+39   -3.6084029245014683e+39   -4.2672619310051625e+39   -4.6832633662027438e+39   -2.6461788482528509e+39   2.3484108094141504e+38   5.4550855763604093e+38   -1.8720165520616618e+39   -1.2843965206943462e+39   2.2511317812419863e+39   4.7492351383222193e+39   -1.7017332014759628e+39   -1.6457697643274414e+39   2.1127062482713772e+39   2.8826584677095636e+39   -1.0646135625002774e+39   1.8397327437453005e+39   1.3734665561931691e+39   -5.1659427223906207e+39   -3.3243717870923610e+39   -2.6498244621863881e+40   -4.2050581497274446e+40   9.5615548012704442e+40   7.6952452531612330e+40   -9.6630770651621090e+38   1.2336106846976064e+41   1.2533149341109030e+41   -1.2894119958470451e+38   -5.6591294846295805e+38   1.1207464548864116e+41   5.4588333701158011e+40   -1.6124332608234963e+39   4.2520914259133517e+38   2.5513094625799125e+37   2.2628807492996855e+38   1.0085647277749941e+39   1.1055390338356786e+39   1.7021933398057132e+40   -2.6365871090388723e+39   -6.4891157544634571e+40   -1.1920142381884524e+41   -1.3957646093754397e+40   -1.5418144039452573e+40   3.6450568610700110e+39   2.7956720919880107e+39   -1.2975223212412627e+39   1.2349570056953479e+38   -1.2725190609191793e+38   -8.0242038468939395e+38   -1.7368485042590743e+38   6.0478386833633717e+37   -1.9041060730324541e+40   -1.9622979465348146e+39   -1.9418550538793155e+39   -7.5948258790735533e+38   1.0258335152360341e+41   -4.6258071539327488e+38   -1.3297151266025978e+39   -1.5710421787641300e+39   -2.4868532898861108e+39   1.1232554331357742e+39   -1.4628126136356556e+39   -7.0970640149834317e+38   2.4428835843902560e+38   -3.1738670220587777e+39   -7.6433068269653034e+39   -1.3140674202650081e+39   5.5800851685161480e+39   -1.1518183816444562e+39   -1.8583600074446063e+39   -2.3531568340220520e+39   5.3489096345994612e+38   -2.9864995233845224e+40   -9.4753619435665582e+38   1.6586408592852899e+39   1.3880369569763664e+39   -9.9831939907810417e+39   2.9249126812975240e+39   8.3193297595757520e+39   1.1482230742206210e+40   -3.0436442698727161e+40   -2.2434661132246668e+39   -4.7886992956717532e+39   -4.6427459855658899e+39   -2.7024530785046907e+41   -1.1792872969633495e+41   -2.6287062570986184e+41   -1.5551948947037342e+40   -3.8536379804658285e+39   -1.4016933525351061e+40   5.8429094925774135e+39   7.9963204594022345e+39   2.1680657712478679e+39   1.7039252672828684e+39   3.3430266045105186e+39   1.6332940394127029e+39   1.6499873850854193e+39   2.1536865861196297e+39   -2.8550098626488883e+38   -6.6838661184087307e+38   4.5895766635440584e+40   2.0748272913405982e+40   4.6462154492069901e+38   5.7172681944387580e+40   3.6653297639631213e+39   2.3366359376605897e+40   4.1984064516254275e+39   5.7126351207334193e+39   2.9183609482121426e+40   7.8252799825093671e+40   2.3240535670355546e+39   4.5042654886875687e+40   4.4681087699523169e+39   1.1737984154308578e+40   2.3234398671228245e+40   2.0076028169882711e+40   -5.3307399807682343e+39   -3.6128353472344350e+40   2.0171214194456310e+39   3.4575934205717235e+39   -5.3648662817393816e+38   -2.4012061227448955e+40   -1.1673903899289250e+40   -2.2003239036123830e+41   -4.5511970237891423e+40   -5.2915247838753788e+40   -5.0766374027684090e+40   -6.5537913815301669e+39   -1.3005099627976742e+39   -1.3316507139435356e+40   -2.4836318818233240e+39   -4.3146065284502071e+39   4.2739820302848641e+40   1.0115558440436294e+41   9.8636523238710098e+40   4.9411111697001602e+40   -6.5144087861263541e+39   -5.4788607837765537e+39   -1.1030723161495244e+39   -9.9709303203081869e+38   -3.6621335337142085e+40   -1.7135353420579697e+40   1.4707770966432824e+41   7.3136838350812701e+40   9.2159805058145076e+38   3.5686424188611945e+38   1.1119297015156468e+38   1.7020743123654269e+38   2.7433796493105854e+38   2.3104032918043224e+38   -1.2435097242654275e+41   -5.7972074588049555e+40   -7.4997252713958779e+40   -3.6430760747304693e+40   -3.8168767604568909e+38   -4.7646460349417855e+38   -3.1406797895282242e+39   -2.2236756918292722e+39   -1.2326437579399079e+39   -1.4556909275647461e+39   1.9771486912003322e+39   -1.2153082016123609e+39   -3.5358509280304071e+39   -6.0452647165979131e+39   9.3685574870670717e+39   1.2475205420154838e+40   -2.6360635754160315e+38   6.9373436491205945e+37   1.1726347006441468e+39   1.3062299356130611e+39   -1.2106628819924852e+40   -1.2999522499515091e+40   -6.4401934322406526e+38   2.5339153194241854e+38   -1.4777388638424368e+39   -8.9806812159367693e+38   3.3310253227447791e+38   -5.0179243353115716e+38   3.0447500517913640e+40   1.1607422461669358e+40   -3.0035377918904312e+38   -3.8668749540306991e+38   -7.1952142702184083e+39   -7.6277877158638328e+39   -8.5575374762260351e+37   8.7112164642150501e+38   -3.0211263215690584e+39   -1.3589387714039538e+39   1.3522913611500575e+39   9.7071254170746718e+38   4.3641098673207768e+38   9.4261795703054442e+38   4.3784788266910232e+39   -3.1342456735509857e+40   -3.6095931159415469e+38   -8.8613886930432045e+38   1.1789207222549508e+39   6.7201000321888430e+38   -1.1930206458168149e+40   -1.0423973941493881e+40   6.8011155009622180e+40   1.3727802041334828e+41   5.1609458501819942e+38   9.3179829484952360e+37   -5.4745382706297531e+39   -4.3498251433067889e+39   1.4930691769127858e+40   2.6316533308041708e+40   -7.0924804556430842e+40   -5.3014446273722479e+40   -2.6668981169083624e+39   -3.1589625856486319e+39   5.2618959361943423e+38   8.5972999312125608e+38   -2.5968447558176001e+39   -1.0825068957830433e+39   -3.4914421964589214e+39   -3.8505231544841269e+39   -3.6469192308967671e+38   -7.8609092814304316e+38   -2.4024715304744942e+40   -5.3328394086785659e+39   -4.3136405205047059e+38   -5.6733053743383332e+36   6.8332080697085120e+38   4.2236358412018887e+38   -9.2605297893573266e+38   -8.9223033895018390e+38   5.9754689098434736e+39   6.0811725713271569e+39   -8.7185184521425751e+38   -2.1022517711467423e+38   -4.9271767694276645e+39   -4.0214445084021141e+39   1.2344161093647088e+39   1.8388387131094132e+39   -2.6862198964910614e+39   -2.8189761647804146e+39   -1.6879811138006103e+39   -1.9327768626587804e+39   4.9349857523059176e+39   7.2428059698581896e+39   9.6693440877988619e+40   4.1316829701570213e+40   6.7508557601627502e+39   6.3074949901378355e+39   1.6370134025409828e+38   -2.5346449658570244e+37   -9.7875614832344011e+39   -3.6910694484370482e+39   1.6666618569389964e+40   1.6351129094279878e+40   -1.4841850932206134e+39   -1.7899426603274536e+39   3.6698235579442833e+38   3.5229172271848509e+38   -2.1542973577435643e+39   -1.5674974066783393e+39   -7.0956865446298492e+39   -3.1631032887402979e+40   -7.6477094439416455e+39   -8.7003693822648456e+39   -4.0364796006964954e+40   -6.5857040569923155e+39   1.0606541182530398e+39   -6.2153747579334601e+38   -1.9209921073807489e+40   -3.6175287514504565e+40   3.3330991453718295e+39   3.7757708320237240e+39   1.8967760276865001e+39   1.4095177065273418e+39   4.9214956504188927e+39   3.4499667102566923e+39   -1.3371788041351547e+39   -8.2634570936094874e+38   8.3212617049651948e+38   2.0952568615003798e+38   5.7453599652596768e+38   -5.8929066330693600e+38   -3.3499794210206249e+39   -3.9878639156163725e+39   -2.0544535272225002e+39   -2.1486106471454578e+39   -4.9540494390404479e+40   -9.0514255544646556e+39   1.2123037275424116e+40   1.4127363307526419e+40   -2.8849118860447419e+39   -2.6550780636503251e+39   -2.6055853829768101e+39   -3.0018313676213112e+39   5.5022226937323448e+39   6.2487890136983502e+39   5.6350318976510993e+38   4.3937444642950166e+38   3.3224174664956854e+38   -2.1830069353273987e+38   -1.4670026399117001e+39   9.3410869375431794e+38   7.9628183517526732e+40   3.4875846760762840e+40   1.3285701077353505e+38   -1.0929245117821420e+38   -1.0402229977612332e+38   7.8380103252361305e+37   -8.8090188136096157e+39   -7.3864436338149234e+39   4.8541859024718670e+40   8.9585764221590766e+39   8.3141378449789185e+38   1.0573571721413187e+39   -8.1587473109001247e+38   -1.2675180898212618e+39   -9.4544076904046343e+39   -5.9644612224793971e+39   3.9104483830002338e+38   1.5231939080317765e+39   7.8865632983373482e+39   5.3626492996062872e+39   1.7390610181472951e+38   1.6836500352422974e+38   1.5132563515200908e+39   7.8726788696519349e+38   -4.4899498014484997e+38   6.9815400347774352e+38   1.3799805539337104e+39   2.3145498149284006e+39   -1.2727871040961380e+39   -1.0254061334239893e+39   -8.4724889205555015e+40   -3.7532919622026292e+39   -2.0843380743988815e+41   -1.1542163517278601e+41   -9.7971595696192800e+39   -8.8068168364060537e+40   2.0816262271193299e+40   1.6221617464533609e+40   1.9436021414965324e+39   1.2400914507788055e+39   -3.1211735894479973e+39   -4.7462095612752397e+39   -3.8772405065948825e+38   -4.8230488735218157e+38   1.8376437005469951e+38   2.2147540155767650e+38   -5.6801469049389169e+38   1.2257782469791116e+38   4.4724353288719072e+39   2.3611295623425979e+39   3.6438187344437848e+39   3.0735647804318286e+39   2.4222406088340966e+39   2.5243882873271725e+39   1.7777435308059371e+39   2.1215699929348327e+39   -8.5193403431850628e+38   1.9271779283193378e+38   -2.9899002786086328e+39   -2.6008231172361071e+39   -2.1147569164349791e+39   -2.3513846373936802e+39   1.8726931620574871e+39   2.0670593908898507e+39   -2.5441772425721188e+38   -2.7129612302692337e+37   6.4807082051112642e+39   1.5295099151339617e+40   -7.7090858336909475e+39   -2.1322043662352864e+40   -2.3169307869869295e+40   -7.5242215193393559e+39   1.6810368771123933e+40   3.6652058227334356e+39   2.6267345660091908e+39   6.5530457652811741e+40   8.9891900649048326e+39   1.0793744046071317e+40   2.3321544499044205e+38   1.4331891893254492e+38   -2.1147896131721673e+38   -5.0085012564979195e+37   -4.1824851001089401e+38   -5.4399760881035692e+37   -5.3884925767886415e+39   -4.9855991405621536e+39   8.5839742453040787e+38   1.3574695275085877e+38   3.6214253461953818e+38   6.2202186770404254e+38   -1.7014706022416585e+39   -1.3948386185611313e+39   4.5263303706204499e+39   2.1071128948962053e+39   1.9718526385027174e+37   2.0951086456543212e+38   5.3339914974682406e+38   6.1318679915052130e+38   -4.4479240642834771e+39   -4.9939995657310801e+39   5.0676686841724446e+39   5.2056199351308183e+39   -2.0014666507328871e+38   6.7815286165492410e+37   -3.1241884858720065e+40   -1.2447339369350116e+40   5.9110012392186300e+39   5.7911923613475195e+39   8.0410134498293110e+38   1.4083084657159756e+39   3.8429837597582701e+40   1.9870670827555950e+40   -1.6073076225825934e+40   -4.8206512597321767e+40   -2.4683717528778550e+39   -2.2220972889855888e+39   2.3950246411047529e+39   2.8842017931389361e+39   -9.9770245802489545e+39   -1.1494786883778713e+40   -8.5044980608577456e+39   -8.7595588557682812e+39   -5.5549375839946173e+37   -2.3571831033253873e+38   9.9041155431316891e+39   2.1192170993411401e+40   -6.1561528150784819e+38   2.7189981696324215e+38   -2.3680357697034880e+40   -7.6450594379729654e+39   -1.1138047474144970e+38   1.0723582501286023e+39   1.0571399837895872e+40   5.5857043142719778e+39   2.8890114882693076e+39   2.8885870726847275e+39   -1.7560993367576706e+40   -3.4326875329734445e+40   -1.0379830363669300e+40   -1.1003920737729589e+40   -1.3963875964077623e+40   -4.3038910797013550e+39   1.4744706574458775e+40   4.6062867366055692e+40   -4.6924729515731310e+38   -7.6723237786508666e+38   3.4381352557892303e+39   1.4272591080016876e+40   7.2061467928383643e+39   6.4685782158216823e+39   1.1409380041047598e+40   1.0876215906586078e+40   1.2730913470190465e+40   1.4393679134041385e+40   1.1030839498350902e+40   3.3357819116122338e+40   -5.6281606557603207e+39   -1.4283458609723225e+40   -2.4754142926208321e+40   -5.6783675373095587e+40   1.3901375210181467e+40   8.4683670214427943e+39   2.7439948732422772e+40   1.0948561626851953e+40   4.4508565699793331e+41   4.4182434763154167e+41   -3.6601831983559340e+39   -3.7322339341071933e+39   -3.4573924804776786e+39   -2.8766124102061107e+39   2.0803273885916107e+39   1.9703587957797354e+39   6.4576838946461009e+40   1.7664063421118816e+40   -8.6065163386888186e+39   -6.9692737782354644e+39   -7.4152471699068076e+37   -1.9592402252872114e+38   -1.5533814328388823e+39   1.1098995073209543e+38   -2.0752083325163293e+38   -6.4534475240657107e+38   -2.6933603721704159e+40   -1.0938276333917883e+40   2.0906212129082046e+40   1.5768558252363742e+40   -1.5334645880952019e+40   -1.4647026992784999e+40   1.3183539617657283e+39   9.5007573690222272e+38   2.0499267085585809e+39   1.6277348105258720e+39   8.4383509076112296e+37   2.0459988176718473e+38   1.1984626264592656e+39   9.8442619266353020e+38   5.3967905640891979e+39   5.7681473833398538e+39   4.3086361192174418e+39   4.6091575946552284e+39   4.2388647983414715e+39   4.0457686812123638e+39   3.3161490373491767e+39   3.8339157021797677e+39   -6.3336535330667285e+38   -6.0245685592130052e+38   -7.6714877108648839e+38   7.3215037112783750e+37   </DataArray> 
</CellData> 
</Piece>
</UnstructuredGrid>
</VTKFile>