<?xml version="1.0"?>
<VTKFile type="UnstructuredGrid"  version="0.1"  >
<UnstructuredGrid>
<Piece  NumberOfPoints="387" NumberOfCells="708">
<Points>
<DataArray  type="Float64"  NumberOfComponents="3"  format="ascii">0 3 0  0 -3 0  6 -3 0  6 3 0  3 -3 0  6 0 0  3 3 0  0 0 0  3 0 0  0 -1.5 0  1.5 -3 0  1.5 3 0  0 1.5 0  6 -1.5 0  4.5 -3 0  6 1.5 0  4.5 3 0  4.25 -1.25 0  1.75 1.25 0  2.25 -1.5 0  4.5 0.75 0  1.541666666666667 -0.2083333333333333 0  3.219827586206896 1.521551724137931 0  1.125 -1.875 0  4.875 1.875 0  0.8702651515151515 0.631628787878788 0  2.25 2.214285714285714 0  3.316176470588236 -1.904411764705882 0  5.214285714285714 -0.75 0  5.03125 -2.03125 0  0.96875 2.03125 0  4.041666666666667 -0.2083333333333333 0  0.8205128205128206 -0.9134615384615387 0  3.942582294752138 2.189194098250713 0  3.061487638533674 -0.968243819266837 0  2.192708333333333 0.4427083333333334 0  4.157850026972511 -2.182329047049442 0  2.331456616463011 -0.5285296485744057 0  3.654761904761905 0.5654761904761902 0  5.25 1.125 0  2.563673341677096 -2.280663329161452 0  5.126674107142857 0.1283482142857142 0  0.75 -3 0  0 -2.25 0  6 2.25 0  5.25 3 0  0.7680051888903191 -0.1384245958639337 0  1.617229471026718 -1.006949429867069 0  4.218940341429579 1.468686552856807 0  3.75 -3 0  2.25 -3 0  0.75 3 0  5.25 -3 0  6 -0.75 0  0 -0.75 0  0 0.75 0  2.25 3 0  6 -2.25 0  0 2.25 0  3.75 3 0  6 0.75 0  1.787573018358365 -2.279142327213878 0  3.195025188237337 2.273430909158844 0  2.528159645294386 1.151699106559287 0  1.041598427383826 1.322848427383826 0  1.520951704545454 0.4634232954545453 0  1.580357142857143 2.325892857142857 0  4.919642857142857 -1.361607142857143 0  4.54981623521892 -0.6483700862895494 0  2.99317863826574 0.6697091957925523 0  3.450169349029507 -0.4574865881858001 0  3.605016126014028 -1.323102984840902 0  2.745144658907412 1.882241931337371 0  0.4898065586600511 1.092777516238393 0  0.5 -1.875 0  1.217028489597945 -2.469323836800685 0  1.659912685567181 -1.604738056701542 0  5.4375 1.6875 0  5.34375 2.34375 0  4.52741779500503 2.384139265001677 0  3.375 -2.514804579549941 0  0.5446428571428571 -2.455357142857143 0  2.766554087216865 -1.745795909102064 0  4.525516559010988 0.1490283123570637 0  3.87554132162248 -0.8280516069565407 0  4.53622906132958 -1.76963146596888 0  0.4243951612903226 1.875 0  0.554851858345021 2.446861709948876 0  5.575604838709677 -1.875 0  5.445148141654979 -2.446861709948876 0  4.875 -2.575604838709677 0  1.440573466105381 1.721823466105381 0  2.193519495405082 1.631799415080963 0  5.472630128027442 -1.330813078900983 0  4.750126894286386 1.343813447143193 0  5.607142857142857 -0.375 0  2.625 2.607142857142857 0  0.3921763197810531 0.375 0  5.60901753622775 0.3750000000000001 0  1.125 2.613454943235572 0  3.701856738980915 1.163867513386733 0  3.736112850688509 1.696746876851408 0  3.519183195491339 0.06065128742606851 0  3.973620778217027 -1.693401606145563 0  0.8125 -1.444978632478633 0  1.256657745408029 -0.6381828923025001 0  0 -1.125 0  5.019997778514942 0.6475044429701156 0  4.125 3 0  1.285569332703024 0.8955310332120207 0  0 -0.375 0  0.4638922275641027 -0.5625 0  2.056635259780241 -0.07226025978024064 0  2.130475508371123 -1.000827820434028 0  2.677484372338113 -1.267299126394495 0  2.848680878891876 -0.4956836878192376 0  4.937901885089369 -0.3340245904575954 0  4.393563081308854 1.919544166973803 0  4.053859126323572 0.2813938488760716 0  1.181051704329518 0.1167440895674965 0  1.971354166666667 2.607142857142857 0  4.875 3 0  2.519350561152006 0.08093582719875507 0  3.139443301924015 -1.442524927271905 0  6 2.625 0  1.849169256239503 1.945480934753207 0  1.867196483071171 0.7892354369530077 0  1.192506522009051 -1.184888428863342 0  3.375 3 0  3.603234392481833 2.536866305538572 0  3.846752908916648 -2.537707634073423 0  2.014339897513945 -1.886932065281681 0  4.038392037966526 0.8363324773944992 0  4.421242701722609 -2.552534687860327 0  3.715389848650903 -2.108856956172843 0  2.985668138820625 1.127780908772207 0  0.4500794934449803 -1.173696061598557 0  3.366760888116476 0.8891914618875614 0  1.869163043700093 -0.6107175804171328 0  2.175114838273305 -2.53928723780967 0  3.014417665538299 -2.241523065744933 0  2.625 -3 0  2.819968145332426 -2.617202329573456 0  5.625 1.3125 0  5.563263538826679 0.814027077653358 0  5.625 3 0  2.550041671270923 0.7074928970804664 0  4.014583091741168 2.59891853892166 0  0.6440729668673318 1.499523832583132 0  5.219449799568244 -1.660557808485412 0  3.474012636702472 -0.9300738420779746 0  0.8125 -2.142857142857143 0  1.875 -3 0  4.945010515846405 2.554471797033147 0  2.611388969012422 -0.8478354915063726 0  3.223746055611014 0.3371683159691745 0  4.843939757110898 -0.9483610977948225 0  4.66556954816842 -2.220888354477256 0  4.125 -3 0  4.448108395110625 -0.2524000502731018 0  5.63671875 2.05078125 0  2.822484133964224 1.491327727709286 0  3.378213092764193 1.903125093887009 0  5.607142857142858 -0.9231200445788541 0  2.12639693023183 1.100450516019641 0  5.625 -3 0  0.375 3 0  0 2.625 0  6 -2.625 0  0.3931307155906299 -0.01856779822591927 0  0.7651723094668359 0.253768144801553 0  0.8549199714190221 -0.5218333744252657 0  1.421989550604507 -2.133299471886336 0  1.582611957351803 -2.615166692128227 0  4.420331038793115 1.133144382396504 0  0.375 -3 0  0 -2.625 0  5.078156723571596 1.54697017071479 0  1.877250715260938 -1.288801575378032 0  2.409169073010687 -1.916147168931784 0  1.146151077069952 -0.268000681695328 0  1.726784828652036 0.1335728643263411 0  2.745628549924675 0.3838821021397905 0  3.011490900297165 2.613625569196862 0  5.62463365164608 -4.137655439684362e-05 0  1.875 3 0  1.125 3 0  6 0.375 0  2.625 3 0  6 -1.125 0  6 -0.375 0  4.875 -3 0  6 -1.875 0  3.375 -3 0  1.125 -3 0  0 -1.875 0  0 0.375 0  0 1.125 0  0 1.875 0  6 1.125 0  6 1.875 0  4.813017731148975 0.9677363687196439 0  2.807371623148303 2.264962208227767 0  0.3692953377255688 0.7436406761680247 0  5.615625 2.615625 0  0.9395725521479794 0.9812935874921043 0  1.390920759130215 1.238984550166515 0  0.9588795022085095 1.672288500195331 0  0.87712392565124 -2.641031728267331 0  0.3665732993114588 -1.532068934251388 0  1.841944504733106 1.591700334213738 0  4.832970185136452 0.3385359233091246 0  4.169083540479082 -0.5746148619765254 0  5.281697083409333 -0.2046640461936881 0  4.072845380968044 1.784516523483641 0  1.293029195762321 -1.543079049035419 0  4.878733886054284 -1.720697370582964 0  3.609167475697567 -1.687579152754035 0  4.836981942878573 2.222259978217028 0  4.204938267037067 -0.9128589669335569 0  5.183079748175263 -1.111742407358677 0  1.22880920402559 2.273525645756405 0  1.469404041858679 2.654509729682302 0  4.566761045622856 -1.414165869120005 0  4.531680518427715 1.606803989975667 0  1.918929241273175 2.27471131819245 0  3.526908551984126 2.207147627530056 0  1.85683899811842 0.4533569963423589 0  1.173935704088662 0.4636872214645547 0  2.116602160898525 -2.207718541460878 0  4.51821874648995 -1.042568353750147 0  2.721551512787618 -0.1859357475290837 0  5.294921875 2.001953125 0  5.288671874999999 2.670703125 0  2.199940744527116 0.7756512213396931 0  4.090519467638897 1.163401080812838 0  2.298177083333333 2.670581371753247 0  2.484362362207526 -2.687319997637033 0  3.300530569898859 1.207053005217563 0  3.936078051808127 -1.362164062673065 0  5.341218841330105 0.5689885832563615 0  4.226314635599414 0.5638853401248238 0  2.524510956818563 1.635483567726497 0  0.3219546452225031 1.389066019009203 0  3.139061555368706 -0.3133905221155423 0  3.145569907612562 -0.6461828528638952 0  3.701427442033566 -0.2272880199383185 0  1.686782510365738 -1.934662341426927 0  2.427696494631844 1.944064773844184 0  3.901817839425732 1.422433381251312 0  2.356489883772755 -0.2025512972825912 0  4.820757576351118 -0.01647699434507374 0  3.064415631228375 1.809719380809516 0  4.643002705009462 2.69782572459795 0  4.31624250429496 2.728112685900672 0  1.520100694408069 -1.314302747998057 0  3.754559308601717 -0.5375020107416889 0  0.25 -2.0625 0  0.8125 -1.826636904761905 0  4.861738621091127 -0.6367294570749906 0  1.545149590740081 2.015832101819233 0  3.857113324620078 0.04127675193819436 0  0.2479605082936806 -0.9375 0  4.21293081604216 2.352874368135467 0  3.123697687162562 -2.708090473740421 0  3.415275466010259 -2.202892416689829 0  3.601103065320932 -2.727566580522146 0  1.558629964945672 -0.5289921609136927 0  3.324859026263307 -1.198136798699183 0  2.424350759683917 -1.092246517929194 0  2.746461744851735 0.9398108087856579 0  0.8882026075771248 2.364936378889839 0  0.8066140242673685 2.679750706449505 0  4.504454978490482 0.4491616076730165 0  4.26881784709759 -0.009649566552704852 0  1.3125 -2.75919801263958 0  1.120577805361368 -2.179971784090952 0  3.734048623985226 0.8602850349907256 0  3.527828882622877 1.432983527791925 0  1.959527908877504 -1.578124930685265 0  0.7602573574724077 1.220872343399509 0  0.6691217533356228 0.8531987603309893 0  1.877213035764122 -2.564340152892596 0  3.32172153715047 2.685939810104955 0  4.285565286275464 -1.569057178671076 0  4.227521511146333 -1.876903861267543 0  5.34375 1.40625 0  5.71875 1.59375 0  1.56245959534423 0.766197796710638 0  0.2458241530773257 2.4375 0  0.2794123857609179 2.138568368155198 0  5.754175846922674 -2.4375 0  5.720587614239082 -2.138568368155198 0  0.6472458227887359 2.124973059628837 0  5.124241021325378 -2.352544055105642 0  5.189172233440652 -2.675873509996353 0  5.364643151640443 -2.12768524739804 0  2.298896485720138 1.348573610321417 0  0.6008689899200503 -2.745193425346304 0  0.307092513690391 -2.651812055231556 0  0.2683745826107009 -2.363146293324415 0  0.5223214285714285 -2.165178571428571 0  0.3925308914031174 2.699891746740618 0  5.607469108596883 -2.699891746740618 0  2.138365140930822 1.917102089073091 0  1.25507379660067 1.953406658386351 0  4.135759889512124 -2.476847355718572 0  0.5330865684534913 -0.8980875812659357 0  2.548249345531056 -1.538893887888457 0  2.67686064875775
[...]
<CellData  Scalars="f_26-2"> 
<DataArray  type="Float64"  Name="f_26-2"  format="ascii">2.2546400593916090e+71   1.4436732694338322e+72   1.3172500834533910e+72   3.1754768479113771e+72   6.9315578014435979e+71   1.0942869774339497e+72   -5.4127977573442786e+71   3.7196889625002739e+71   -1.3960194608137374e+70   3.3401235086547701e+70   5.8007709770050373e+71   -1.2297307614948197e+72   -4.8165340036904951e+71   -1.1156813996841865e+72   -8.2345180290389555e+69   -2.8141688391265323e+71   -1.0069273863557272e+72   1.4524092332033768e+71   -2.3041774278464511e+71   -7.0214099055764973e+70   8.8807563168009060e+70   -3.9147194701157726e+71   -3.3963864434091048e+71   1.1045338008106553e+71   2.8147540198689530e+71   -1.1208613155226513e+71   1.8028680227214832e+72   2.4394509734034516e+71   3.1526884521341066e+71   -3.5432275001736161e+70   1.0471382323740409e+71   -6.0817539807054651e+71   -1.4898916546822610e+69   -1.1185311030967685e+72   8.2819005353395348e+71   7.8092536494926667e+71   -2.4205246607693447e+70   6.9116004850636407e+70   -8.9297763919681908e+71   2.0966494989417419e+71   4.0843450617759109e+71   -2.0512387233311254e+70   -5.9207472201317755e+71   -6.3940457262293034e+71   -1.9343190120062230e+72   -8.7656495187349067e+71   -7.7417848511219232e+71   -2.4356713394132357e+73   1.3351831916727518e+72   -1.1004701932537284e+72   1.1646539911268994e+72   -1.7948378123612768e+72   1.0449906368761799e+72   2.0688315690682247e+71   8.5945201312472183e+71   7.5891943287830424e+71   -1.3749211557625722e+72   -6.2365460742005491e+71   -3.5603473657123049e+70   -4.2785115009838086e+70   6.2203458403174492e+70   9.8201973339293558e+70   -6.0257617932098630e+70   -2.1091313388164983e+71   4.1620745558085867e+72   -7.7264151599246515e+72   5.5501461268835784e+70   -3.1218008528750588e+72   -1.7418152464621545e+71   4.5503497676338608e+71   -2.1848501800118233e+71   -8.5945583836364916e+71   2.8678548216989265e+71   3.3746904401993638e+71   -1.5463352006066681e+71   -4.4323526878579870e+71   1.1165970505137777e+72   6.6652312320019582e+70   -3.7157845193373466e+71   -7.4782134086678734e+69   -7.5318874895024980e+70   -4.2402583639532304e+70   -8.2641086138378194e+70   1.7589445024448450e+71   1.5004664199752039e+71   2.8848564685180147e+71   -1.1093107751898184e+71   2.3573906763243913e+70   -1.5536203680883657e+71   -2.8842061440888976e+71   7.2758784175091741e+70   -5.5629675179443861e+71   -2.1095636440831891e+71   4.7859353522526265e+70   1.3956049826086905e+71   1.1875581829187578e+71   -2.3766167963177255e+71   -3.3898826631953322e+71   -1.8622868124803057e+73   8.2541841601112687e+71   7.5696509096479113e+71   2.3954151990931869e+72   8.3976709451258347e+71   1.1238680905684962e+72   -3.3487135058190806e+71   -1.6949180155413371e+72   2.9389303480197415e+73   -4.5753322102639300e+71   -7.1499446151647741e+71   3.2191585102638321e+71   5.1654783511431466e+71   -5.1959728582914195e+71   -4.3696646478528569e+71   -1.4086401130863761e+71   -1.0624464532330250e+71   3.2678485702280149e+70   2.0680056872288794e+70   -2.7256818340875374e+71   -6.5519250338139083e+70   5.5954542044538934e+70   2.3420145587284276e+71   -2.2738187553062725e+70   -3.4504839741220130e+71   5.6954612164216438e+70   1.6088491317978310e+70   -2.3544982864093176e+70   -4.6916012049602787e+70   4.8510617486114739e+72   -6.5367988549536889e+69   -8.1705050868155286e+71   -1.5630962809977019e+72   3.8215507720377826e+71   3.0406553242476084e+72   -2.1075436724024410e+71   -3.0150586601454239e+71   -3.6766710978586643e+71   6.7608049369523945e+72   2.1442447314844829e+72   -3.6280843248582124e+71   -5.9950405333404851e+71   -5.0820886226689612e+71   -5.7949681626108686e+71   -4.0948785733395394e+71   -1.5664083954718169e+71   5.0362673519735010e+70   -1.0914197051421844e+70   1.4755654364008701e+72   7.1416446578985447e+71   1.8954796251985269e+70   7.2251450056189472e+71   -7.5384112414578137e+71   -1.9683557898368163e+72   -4.4520034649939546e+71   -7.1986638196573612e+71   1.4366690785572652e+70   -5.5381465149808944e+70   2.0769301793579990e+71   2.4099808245354816e+70   -9.2604441989196335e+72   -1.4106706014299973e+72   -1.3659399033632755e+73   4.7601621254548047e+71   2.5413982436495026e+71   3.5210374910045827e+71   3.8840359662865325e+71   3.2662926488373586e+71   2.8971109720118613e+71   4.9333275014772913e+71   1.1040926972428637e+71   5.8270884337638465e+70   -2.8652681443928407e+71   -3.6484531643895741e+71   -1.7189148060942124e+72   -1.8219280929813539e+72   -3.5079211142487108e+71   -1.9126259781064533e+71   4.2046391207237750e+71   6.9173088779507547e+71   4.7870923290083979e+71   2.3776479340892357e+72   1.3714537614902426e+73   2.3206269897720002e+72   3.6527611430689688e+70   -6.4162449954784723e+70   7.9793993330683624e+70   2.2877823553776441e+71   4.9618961285191512e+71   -1.3345409777876183e+72   -1.0115638792256085e+71   -2.6053229531276244e+70   -1.5423346277421380e+71   -1.4465678355864158e+70   8.3844473164568229e+71   9.8527477959442494e+71   5.9238644335411875e+71   7.5969423589696778e+71   9.8046728552657476e+72   1.6985564166110924e+72   6.8645916966922808e+70   6.1189029959245179e+71   6.4668107892808975e+71   -5.8962516833256627e+71   -6.9728752174117019e+71   -7.6523802822584298e+71   -4.3239425763087392e+71   3.8354121640764161e+70   8.9116812045656456e+70   -3.0590307146745175e+71   -2.0988525188871227e+71   3.6786721983743875e+71   7.7607851788975349e+71   -2.7807380788592706e+71   -2.6892663433966004e+71   3.4524270965442733e+71   4.7106294448208732e+71   -1.7396453801560033e+71   3.0062266087002513e+71   2.2444089783805021e+71   -8.4416063333006578e+71   -5.4323016174681059e+71   -4.3300741188304463e+72   -6.8714422884240124e+72   1.5624298058378178e+73   1.2574554177852611e+73   -1.5789269467421350e+71   2.0157605188208513e+73   2.0479637082374879e+73   -2.1080851472726493e+70   -9.2482312330046877e+70   1.8313219097671944e+73   8.9198572184314023e+72   -2.6348859185050533e+71   6.9459729219434670e+70   4.1299427699316955e+69   3.6919293585418653e+70   1.6480724363094828e+71   1.8064881991624623e+71   2.7816094626445894e+72   -4.3082709622029707e+71   -1.0604097067639141e+73   -1.9479183965959484e+73   -2.2807136820446858e+72   -2.5193655385532249e+72   5.9564835850928965e+71   4.5684410181084804e+71   -2.1201663937711516e+71   2.0184437860012123e+70   -2.0828133539007356e+70   -1.3113146339349167e+71   -2.8429993725703435e+70   9.8459392036953604e+69   -3.1112098436146154e+72   -3.2064131224901933e+71   -3.1731160823801305e+71   -1.2412057461666492e+71   1.6762686736361160e+73   -7.5598013515444445e+70   -2.1729606062725727e+71   -2.5671496757657575e+71   -4.0636473838745388e+71   1.8354547169100172e+71   -2.3904250449428499e+71   -1.1598975016651804e+71   3.9892524702189057e+70   -5.1697004728570488e+71   -1.2483429344098214e+72   -2.1306324013460398e+71   9.1245880615894433e+71   -1.8699993657121929e+71   -3.0323455073931993e+71   -3.8331149405145901e+71   8.7839110044227583e+70   -4.8801984500433347e+72   -1.5483466630905124e+71   2.7103648079845424e+71   2.2681617006222119e+71   -1.6313385643088369e+72   4.7796665524822867e+71   1.3594846015043406e+72   1.8763444308142794e+72   -4.9737040633446158e+72   -3.6659704078411600e+71   -7.8249867580048204e+71   -7.5864524389827254e+71   -4.4161441182210219e+73   -1.9271096523570465e+73   -4.2956435832979126e+73   -2.5413816913822585e+72   -6.2969590547704970e+71   -2.2904084399761094e+72   9.5481005708880094e+71   1.3066987592560381e+72   3.5429107712157743e+71   2.7843410836069883e+71   5.4629375746081598e+71   2.6689452259279052e+71   2.6962162436438635e+71   3.5193437731223659e+71   -4.6647290165019994e+70   -1.0921412002272029e+71   7.4996323271084258e+72   3.3904081344889493e+72   7.5920045996822685e+70   9.3424484860350668e+72   5.9898186554227662e+71   3.8185335022291765e+72   6.8628018891526761e+71   9.3369297322615501e+71   4.7688214308078048e+72   1.2787100982551262e+73   3.7977131006831180e+71   7.3603835093829109e+72   7.3012298756123287e+71   1.9181068660240940e+72   3.7966783282595426e+72   3.2805828122182733e+72   -8.7085648599387387e+71   -5.9030076480145176e+72   3.2959742325774847e+71   5.6521611486600491e+71   -8.7672731568562413e+70   -3.9237593988190901e+72   -1.9076734774860735e+72   -3.5956245325282317e+73   -7.4371286619045769e+72   -8.6468531080702849e+72   -8.2956727941912020e+72   -1.0709463858652867e+72   -2.1251815403134472e+71   -2.1759956420109187e+72   -4.0585032299173825e+71   -7.0481993687078277e+71   6.9839847323842080e+72   1.6529560461294532e+73   1.6117826801553534e+73   8.0740979223878784e+72   -1.0644740866006040e+72   -8.9526554348602590e+71   -1.8025760903607217e+71   -1.6293447949058557e+71   -5.9842354051709948e+72   -2.8000592835779326e+72   2.4033185496925485e+73   1.1950878184466751e+73   1.5058544156924303e+71   5.8298694668763024e+70   1.8134745076560262e+70   2.7774270774484680e+70   4.4775274560300365e+70   3.7684572995968022e+70   -2.0320665517224459e+73   -9.4734368459902149e+72   -1.2255276131775375e+73   -5.9531495628331409e+72   -6.2396020385764471e+70   -7.7872339331880913e+70   -5.1320366199393233e+71   -3.6336627501003774e+71   -2.0143232047468894e+71   -2.3787818895701011e+71   3.2308071327504249e+71   -1.9858922153162282e+71   -5.7776812386757015e+71   -9.8781398814794370e+71   1.5309470132591328e+72   2.0386138692400868e+72   -4.3139857537869599e+70   1.1278444576886139e+70   1.9160335844366177e+71   2.1343819771883780e+71   -1.9782441399710707e+72   -2.1241507112016191e+72   -1.0525103596286949e+71   4.1394766315801900e+70   -2.4148902337093117e+71   -1.4677161237473089e+71   5.4384109954466297e+70   -8.2029959247849348e+70   4.9760161598458453e+72   1.8970408007731722e+72   -4.9101013440154867e+70   -6.3203972954763719e+70   -1.1757169889967791e+72   -1.2464019765940687e+72   -1.4017838047083630e+70   1.4232499473153486e+71   -4.9365984618593194e+71   -2.2204963217900088e+71   2.2097333954056186e+71   1.5862247822711863e+71   7.1301476673350937e+70   1.5402261417984557e+71   7.1550758323999655e+71   -5.1217423821280389e+72   -5.9007590401344862e+70   -1.4482250945008447e+71   1.9265225657971121e+71   1.0981276737270525e+71   -1.9494323966794485e+72   -1.7033104208966571e+72   1.1113221340556956e+73   2.2431576644117037e+73   8.4325236566756128e+70   1.5218134493959578e+70   -8.9455677514578982e+71   -7.1077965993316351e+71   2.4398482342566680e+72   4.3004957860157579e+72   -1.1589985929801404e+73   -8.6631427062541447e+72   -4.3578827445373523e+71   -5.1618988228276998e+71   8.5975294409507620e+70   1.4048331228780251e+71   -4.2434029118459078e+71   -1.7688891397108215e+71   -5.7052256507061192e+71   -6.2919370629681119e+71   -5.9620268637429528e+70   -1.2847985359671737e+71   -3.9258118367665871e+72   -8.7143057955737168e+71   -7.0485785475430232e+70   -9.2445478502644181e+68   1.1166091430743308e+71   6.9014730111766535e+70   -1.5133117620215070e+71   -1.4580340285086655e+71   9.7647570468938100e+71   9.9374148205898566e+71   -1.4246957765946812e+71   -3.4357188357682919e+70   -8.0511644316363675e+71   -6.5711950584911517e+71   2.0171776847601922e+71   3.0048842666085570e+71   -4.3894732341694967e+71   -4.6064024625696141e+71   -2.7582971968080233e+71   -3.1582846986469888e+71   8.0640840285287679e+71   1.1835034798924257e+72   1.5799925361001305e+73   6.7512906919395099e+72   1.1031742302462437e+72   1.0307259837409745e+72   2.6743294300184455e+70   -4.1503653602346236e+69   -1.5993808332747940e+72   -6.0312505107769408e+71   2.7235434639583001e+72   2.6719878758089223e+72   -2.4253736653498294e+71   -2.9250128887147298e+71   5.9906871444704883e+70   5.7510870886609127e+70   -3.5202422466412558e+71   -2.5614134075481243e+71   -1.1594941721583344e+72   -5.1687865437734770e+72   -1.2496492080926600e+72   -1.4216465221615211e+72   -6.5958515649727723e+72   -1.0761417036346529e+72   1.7331679872749484e+71   -1.0156929139214661e+71   -3.1389890709677159e+72   -5.9111247696473690e+72   5.4466769006679272e+71   6.1700593503336888e+71   3.0995151177022247e+71   2.3031601009723575e+71   8.0423088500319337e+71   5.6376317599495520e+71   -2.1850573416435995e+71   -1.3503408262049890e+71   1.3590403375200428e+71   3.4137942964625008e+70   9.3885508891697374e+70   -9.6307931640180996e+70   -5.4740579966857038e+71   -6.5163502300838525e+71   -3.3571678451011732e+71   -3.5109946147547006e+71   -8.0955901616707133e+72   -1.4791193979629999e+72   1.9810758052662585e+72   2.3086012728168042e+72   -4.7141371420552864e+71   -4.3384890688714531e+71   -4.2577143312403663e+71   -4.9051528447094117e+71   8.9913026139184631e+71   1.0211292193391365e+72   9.2070896503758790e+70   7.1779720159384929e+70   5.4278755981676760e+70   -3.5681846550529548e+70   -2.3971472578473383e+71   1.5265824633963495e+71   1.3011566102982925e+73   5.6988883253670882e+72   2.1676402248297598e+70   -1.7883614819803962e+70   -1.7044786876393941e+70   1.2763593146571750e+70   -1.4394291860170097e+72   -1.2069788938673593e+72   7.9320320472224338e+72   1.4639043060523589e+72   1.3585178145994164e+71   1.7277569694486977e+71   -1.3340125587035775e+71   -2.0715435643305029e+71   -1.5446325174203920e+72   -9.7456721944179374e+71   6.3797289416246447e+70   2.4886943314892275e+71   1.2890135044302562e+72   8.7636991930203762e+71   2.8353905666734783e+70   2.7441165162076846e+70   2.4722595116588563e+71   1.2857898197882364e+71   -7.3369140794327811e+70   1.1406971725033537e+71   2.2541848001589894e+71   3.7817063266303684e+71   -2.0799380141872665e+71   -1.6757246069210019e+71   -1.3845193168453995e+73   -6.1333821193770982e+71   -3.4060508400148344e+73   -1.8861271275470717e+73   -1.6009299270810446e+72   -1.4391318790250330e+73   3.4016608468880498e+72   2.6508316486522341e+72   3.1802246161009276e+71   2.0396967944872970e+71   -5.0960320953161292e+71   -7.7423876643892480e+71   -6.3396529518589081e+70   -7.8846081737726353e+70   2.9966522487971198e+70   3.6135924530093206e+70   -9.2854359900596903e+70   2.0009591594314818e+70   7.3084425112000729e+71   3.8583476455507271e+71   5.9543709077002852e+71   5.0224928717402071e+71   3.9581371045762083e+71   4.1251604282725843e+71   2.9049101817345155e+71   3.4667779822409238e+71   -1.3924935486344047e+71   3.1447494869512047e+70   -4.8855737219296969e+71   -4.2498903909664559e+71   -3.4555880743664829e+71   -3.8422460720902900e+71   3.0602153982219191e+71   3.3778411065044626e+71   -4.1600431889098920e+70   -4.4487233492715460e+69   1.0590452621794463e+72   2.4994121812449607e+72   -1.2596701350253377e+72   -3.4841054118649956e+72   -3.7853804176238299e+72   -1.2292765855854321e+72   2.7469580915549678e+72   5.9891872089003160e+71   4.2924540461820600e+71   1.0708017097455389e+73   1.4689472660700500e+72   1.7638374998354823e+72   3.8081306922221541e+70   2.3390210422342989e+70   -3.4586277184683268e+70   -8.2141793461114234e+69   -6.8357305111491251e+70   -8.9010021000922793e+69   -8.8050160162678378e+71   -8.1467019517310722e+71   1.4027181815397571e+71   2.2175331886188453e+70   5.9158464725553083e+70   1.0162590415112003e+71   -2.7802997850811104e+71   -2.2792705134078684e+71   7.3964868275663934e+71   3.4431954418089001e+71   3.1759024909213119e+69   3.4190745113484591e+70   8.7162350703234473e+70   1.0019986700314836e+71   -7.2680286689214062e+71   -8.1602928371365170e+71   8.2811249538176319e+71   8.5065550347240232e+71   -3.2734696186148030e+70   1.1060405923153575e+70   -5.1052820738192832e+72   -2.0340338399945146e+72   9.6590131757884522e+71   9.4632368581610360e+71   1.3140080427936357e+71   2.3013375900969168e+71   6.2797293986601689e+72   3.2470197793169161e+72   -2.6264838310252392e+72   -7.8773768771476839e+72   -4.0335259704391542e+71   -3.6310898740242881e+71   3.9136941329678843e+71   4.7130728911517216e+71   -1.6302819025130066e+72   -1.8782833896621248e+72   -1.3896712895608879e+72   -1.4313452448735184e+72   -9.1262839716481465e+69   -3.8572703753005162e+70   1.6184187673760211e+72   3.4629707445000888e+72   -1.0059899470327373e+71   4.4426498246247226e+70   -3.8695772873101957e+72   -1.2492696200525429e+72   -1.8200273532155642e+70   1.7523068735934486e+71   1.7274458761170926e+72   9.1274575092459252e+71   4.7209983228502281e+71   4.7204010645509338e+71   -2.8694644040045097e+72   -5.6089196532996148e+72   -1.6960868584389375e+72   -1.7980684283520361e+72   -2.2815013547387376e+72   -7.0320052314913925e+71   2.4093923220111780e+72   7.5270114811269057e+72   -7.6681159669918167e+70   -1.2537117623482673e+71   5.6185123840939508e+71   2.3324644817870185e+72   1.1775685145845839e+72   1.0570401913959610e+72   1.8644417475990293e+72   1.7773053188314157e+72   2.0803882106557895e+72   2.3521101236259978e+72   1.8024861417405720e+72   5.4507882087272581e+72   -9.1968708634314891e+71   -2.3340279240229330e+72   -4.0450414754802619e+72   -9.2789399195521578e+72   2.2715885489531431e+72   1.3837939839556691e+72   4.4838942123267052e+72   1.7890780890610413e+72   7.2728588435300839e+73   7.2195546303820568e+73   -5.9809205678143717e+71   -6.0986605143214410e+71   -5.6495800249856307e+71   -4.7005620559703734e+71   3.3993667042504377e+71   3.2196918199505962e+71   1.0551991961944713e+73   2.8863507716316407e+72   -1.4063119422568956e+72   -1.1387835174181502e+72   -1.2133553592373272e+70   -3.2030730874154138e+70   -2.5382599789762740e+71   1.8136841977767343e+70   -3.3911720681285242e+70   -1.0545601561561546e+71   -4.4011870183142585e+72   -1.7874097427159825e+72   3.4163560772762746e+72   2.5767935097446880e+72   -2.5057212159830124e+72   -2.3933561801000230e+72   2.1543575722800622e+71   1.5525437153955636e+71   3.3498944581033035e+71   2.6599428092201135e+71   1.3772906911354710e+70   3.3413075209750372e+70   1.9584131222602179e+71   1.6086616535999820e+71   8.8189875182832193e+71   9.4258373184741396e+71   7.0408747981682618e+71   7.5319408096957461e+71   6.9267914076105119e+71   6.6112977857672402e+71   5.4190358367648254e+71   6.2651116145136249e+71   -1.0352469244527511e+71   -9.8469123142688018e+70   -1.2536419339097915e+71   1.1957134912760925e+70   </DataArray> 
</CellData> 
</Piece>
</UnstructuredGrid>
</VTKFile>