<?xml version="1.0"?>
<VTKFile type="UnstructuredGrid"  version="0.1"  >
<UnstructuredGrid>
<Piece  NumberOfPoints="2534" NumberOfCells="4892">
<Points>
<DataArray  type="Float64"  NumberOfComponents="3"  format="ascii">0 3 0  0 -3 0  6 -3 0  6 3 0  3 -3 0  6 0 0  3 3 0  0 0 0  3 0 0  0 -1.5 0  1.5 -3 0  1.5 3 0  0 1.5 0  6 -1.5 0  4.5 -3 0  6 1.5 0  4.5 3 0  4.25 -1.25 0  1.75 1.25 0  2.25 -1.5 0  4.5 0.75 0  1.541666666666667 -0.2083333333333333 0  3.219827586206896 1.521551724137931 0  1.125 -1.875 0  4.875 1.875 0  0.8702651515151515 0.631628787878788 0  2.25 2.214285714285714 0  3.316176470588236 -1.904411764705882 0  5.214285714285714 -0.75 0  5.03125 -2.03125 0  0.96875 2.03125 0  4.041666666666667 -0.2083333333333333 0  0.8205128205128206 -0.9134615384615387 0  3.942582294752138 2.189194098250713 0  3.061487638533674 -0.968243819266837 0  2.192708333333333 0.4427083333333334 0  4.157850026972511 -2.182329047049442 0  2.331456616463011 -0.5285296485744057 0  3.654761904761905 0.5654761904761902 0  5.25 1.125 0  2.563673341677096 -2.280663329161452 0  5.126674107142857 0.1283482142857142 0  0.75 -3 0  0 -2.25 0  6 2.25 0  5.25 3 0  0.7680051888903191 -0.1384245958639337 0  1.617229471026718 -1.006949429867069 0  4.218940341429579 1.468686552856807 0  3.75 -3 0  2.25 -3 0  0.75 3 0  5.25 -3 0  6 -0.75 0  0 -0.75 0  0 0.75 0  2.25 3 0  6 -2.25 0  0 2.25 0  3.75 3 0  6 0.75 0  1.787573018358365 -2.279142327213878 0  3.195025188237337 2.273430909158844 0  2.528159645294386 1.151699106559287 0  1.041598427383826 1.322848427383826 0  1.520951704545454 0.4634232954545453 0  1.580357142857143 2.325892857142857 0  4.919642857142857 -1.361607142857143 0  4.54981623521892 -0.6483700862895494 0  2.99317863826574 0.6697091957925523 0  3.450169349029507 -0.4574865881858001 0  3.605016126014028 -1.323102984840902 0  2.745144658907412 1.882241931337371 0  0.4898065586600511 1.092777516238393 0  0.5 -1.875 0  1.217028489597945 -2.469323836800685 0  1.659912685567181 -1.604738056701542 0  5.4375 1.6875 0  5.34375 2.34375 0  4.52741779500503 2.384139265001677 0  3.375 -2.514804579549941 0  0.5446428571428571 -2.455357142857143 0  2.766554087216865 -1.745795909102064 0  4.525516559010988 0.1490283123570637 0  3.87554132162248 -0.8280516069565407 0  4.53622906132958 -1.76963146596888 0  0.4243951612903226 1.875 0  0.554851858345021 2.446861709948876 0  5.575604838709677 -1.875 0  5.445148141654979 -2.446861709948876 0  4.875 -2.575604838709677 0  1.440573466105381 1.721823466105381 0  2.193519495405082 1.631799415080963 0  5.472630128027442 -1.330813078900983 0  4.750126894286386 1.343813447143193 0  5.607142857142857 -0.375 0  2.625 2.607142857142857 0  0.3921763197810531 0.375 0  5.60901753622775 0.3750000000000001 0  1.125 2.613454943235572 0  3.701856738980915 1.163867513386733 0  3.736112850688509 1.696746876851408 0  3.519183195491339 0.06065128742606851 0  3.973620778217027 -1.693401606145563 0  0.8125 -1.444978632478633 0  1.256657745408029 -0.6381828923025001 0  0 -1.125 0  5.019997778514942 0.6475044429701156 0  4.125 3 0  1.285569332703024 0.8955310332120207 0  0 -0.375 0  0.4638922275641027 -0.5625 0  2.056635259780241 -0.07226025978024064 0  2.130475508371123 -1.000827820434028 0  2.677484372338113 -1.267299126394495 0  2.848680878891876 -0.4956836878192376 0  4.937901885089369 -0.3340245904575954 0  4.393563081308854 1.919544166973803 0  4.053859126323572 0.2813938488760716 0  1.181051704329518 0.1167440895674965 0  1.971354166666667 2.607142857142857 0  4.875 3 0  2.519350561152006 0.08093582719875507 0  3.139443301924015 -1.442524927271905 0  6 2.625 0  1.849169256239503 1.945480934753207 0  1.867196483071171 0.7892354369530077 0  1.192506522009051 -1.184888428863342 0  3.375 3 0  3.603234392481833 2.536866305538572 0  3.846752908916648 -2.537707634073423 0  2.014339897513945 -1.886932065281681 0  4.038392037966526 0.8363324773944992 0  4.421242701722609 -2.552534687860327 0  3.715389848650903 -2.108856956172843 0  2.985668138820625 1.127780908772207 0  0.4500794934449803 -1.173696061598557 0  3.366760888116476 0.8891914618875614 0  1.869163043700093 -0.6107175804171328 0  2.175114838273305 -2.53928723780967 0  3.014417665538299 -2.241523065744933 0  2.625 -3 0  2.819968145332426 -2.617202329573456 0  5.625 1.3125 0  5.563263538826679 0.814027077653358 0  5.625 3 0  2.550041671270923 0.7074928970804664 0  4.014583091741168 2.59891853892166 0  0.6440729668673318 1.499523832583132 0  5.219449799568244 -1.660557808485412 0  3.474012636702472 -0.9300738420779746 0  0.8125 -2.142857142857143 0  1.875 -3 0  4.945010515846405 2.554471797033147 0  2.611388969012422 -0.8478354915063726 0  3.223746055611014 0.3371683159691745 0  4.843939757110898 -0.9483610977948225 0  4.66556954816842 -2.220888354477256 0  4.125 -3 0  4.448108395110625 -0.2524000502731018 0  5.63671875 2.05078125 0  2.822484133964224 1.491327727709286 0  3.378213092764193 1.903125093887009 0  5.607142857142858 -0.9231200445788541 0  2.12639693023183 1.100450516019641 0  5.625 -3 0  0.375 3 0  0 2.625 0  6 -2.625 0  0.3931307155906299 -0.01856779822591927 0  0.8549199714190221 -0.5218333744252657 0  0.7651723094668359 0.253768144801553 0  1.421989550604507 -2.133299471886336 0  1.582611957351803 -2.615166692128227 0  4.420331038793115 1.133144382396504 0  0.375 -3 0  0 -2.625 0  5.078156723571596 1.54697017071479 0  1.877250715260938 -1.288801575378032 0  2.409169073010687 -1.916147168931784 0  1.146151077069952 -0.268000681695328 0  1.726784828652036 0.1335728643263411 0  2.745628549924675 0.3838821021397905 0  3.011490900297165 2.613625569196862 0  5.62463365164608 -4.137655439684362e-05 0  1.875 3 0  1.125 3 0  6 0.375 0  2.625 3 0  6 -1.125 0  6 -0.375 0  4.875 -3 0  6 -1.875 0  3.375 -3 0  1.125 -3 0  0 -1.875 0  0 0.375 0  0 1.125 0  0 1.875 0  6 1.125 0  6 1.875 0  4.813017731148975 0.9677363687196439 0  2.807371623148303 2.264962208227767 0  0.3692953377255688 0.7436406761680247 0  5.615625 2.615625 0  0.9395725521479794 0.9812935874921043 0  1.390920759130215 1.238984550166515 0  0.9588795022085095 1.672288500195331 0  0.87712392565124 -2.641031728267331 0  0.3665732993114588 -1.532068934251388 0  1.841944504733106 1.591700334213738 0  4.832970185136452 0.3385359233091246 0  4.169083540479082 -0.5746148619765254 0  5.281697083409333 -0.2046640461936881 0  4.072845380968044 1.784516523483641 0  1.293029195762321 -1.543079049035419 0  4.878733886054284 -1.720697370582964 0  3.609167475697567 -1.687579152754035 0  4.836981942878573 2.222259978217028 0  4.204938267037067 -0.9128589669335569 0  5.183079748175263 -1.111742407358677 0  1.469404041858679 2.654509729682302 0  1.22880920402559 2.273525645756405 0  4.566761045622856 -1.414165869120005 0  4.531680518427715 1.606803989975667 0  1.918929241273175 2.27471131819245 0  3.590183783343969 2.184680610175416 0  1.85683899811842 0.4533569963423589 0  1.173935704088662 0.4636872214645547 0  2.116602160898525 -2.207718541460878 0  4.51821874648995 -1.042568353750147 0  2.721551512787618 -0.1859357475290837 0  5.294921875 2.001953125 0  5.288671874999999 2.670703125 0  2.199940744527116 0.7756512213396931 0  4.090519467638897 1.163401080812838 0  2.298177083333333 2.670581371753247 0  2.484362362207526 -2.687319997637033 0  3.300530569898859 1.207053005217563 0  3.936078051808127 -1.362164062673065 0  5.341218841330105 0.5689885832563615 0  4.226314635599414 0.5638853401248238 0  2.524510956818563 1.635483567726497 0  0.3219546452225031 1.389066019009203 0  3.139061555368706 -0.3133905221155423 0  3.145569907612562 -0.6461828528638952 0  3.701427442033566 -0.2272880199383185 0  1.686782510365738 -1.934662341426927 0  2.427696494631844 1.944064773844184 0  3.901817839425732 1.422433381251312 0  2.356489883772755 -0.2025512972825912 0  4.820757576351118 -0.01647699434507374 0  3.064415631228375 1.809719380809516 0  4.643002705009462 2.69782572459795 0  4.31624250429496 2.728112685900672 0  1.520100694408069 -1.314302747998057 0  3.754559308601717 -0.5375020107416889 0  0.25 -2.0625 0  0.8125 -1.826636904761905 0  4.861738621091127 -0.6367294570749906 0  1.545149590740081 2.015832101819233 0  3.857113324620078 0.04127675193819436 0  0.3162874907704933 -0.864918315983958 0  4.21293081604216 2.352874368135467 0  3.123697687162562 -2.708090473740421 0  3.415275466010259 -2.202892416689829 0  3.601103065320932 -2.727566580522146 0  1.558629964945672 -0.5289921609136927 0  3.324859026263307 -1.198136798699183 0  2.424350759683917 -1.092246517929194 0  2.789248065239812 0.8954629970670158 0  0.8882026075771248 2.364936378889839 0  0.8066140242673685 2.679750706449505 0  4.504454978490482 0.4491616076730165 0  4.26881784709759 -0.009649566552704852 0  1.313479173834523 -2.758675889510418 0  1.120577805361368 -2.179971784090952 0  3.734048623985226 0.8602850349907256 0  3.527828882622877 1.432983527791925 0  1.959527908877504 -1.578124930685265 0  0.7602573574724077 1.220872343399509 0  0.6691217533356228 0.8531987603309893 0  1.877213035764122 -2.564340152892596 0  3.304349402914068 2.552016594979913 0  4.285565286275464 -1.569057178671076 0  4.227521511146333 -1.876903861267543 0  5.34375 1.40625 0  5.71875 1.59375 0  1.56245959534423 0.766197796710638 0  0.2458241530773257 2.4375 0  0.2794123857609179 2.138568368155198 0  5.754175846922674 -2.4375 0  5.720587614239082 -2.138568368155198 0  0.6472458227887359 2.124973059628837 0  5.124241021325378 -2.352544055105642 0  5.189172233440652 -2.675873509996353 0  5.364643151640443 -2.12768524739804 0  2.298896485720138 1.348573610321417 0  0.6008689899200503 -2.745193425346304 0  0.307092513690391 -2.651812055231556 0  0.2683745826107009 -2.363146293324415 0  0.5223214285714285 -2.165178571428571 0  0.5169611136983336 2.740349995819724 0  5.607469108596883 -2.699891746740618 0  2.138439274270545 1.947386893596098 0  1.25507379660067 1.953406658386351 0  4.135759889512124 -2.476847355718572 0  2.548249345531056 -1.538893887888457 0  2.771010284190282 -2.05339728351
[...]
<CellData  Scalars="f_26-2"> 
<DataArray  type="Float64"  Name="f_26-2"  format="ascii">-3.7175737964282197e+21   -4.6134247735234087e+21   -6.8618048707079816e+21   -5.9535511991578484e+21   -6.5622108377685489e+21   -1.2066967801409653e+22   -4.3109744215325006e+21   -5.5761238447287842e+20   -4.7040862308014483e+20   -3.7000700728073613e+21   -3.2385914182154353e+21   -6.3576545824292806e+21   -2.3566548231502936e+21   -7.7693219964557764e+21   -6.6977550059199739e+20   -4.8498842819363844e+21   -6.4699786261562414e+21   -1.5181736612958555e+20   -4.7823654134156173e+21   -2.7363210985053241e+21   -8.2833242035159711e+21   -1.9281358599998805e+21   -5.2151242395558693e+21   -2.7186326013399505e+21   -3.7432746140673287e+21   -4.8125134238661676e+21   -8.7064879502253055e+21   -3.0194623646185554e+21   -2.9824118531811904e+21   -4.4826110325065242e+21   -2.1766967013342275e+21   -2.2573565842335733e+21   -3.8342635271542035e+21   -3.5814289653392794e+21   -3.9742103207380711e+21   -4.4452291769527420e+21   -5.4698729155553143e+21   1.0676663217421683e+21   -6.8685340898547519e+21   -4.7266428858861523e+21   -1.8345908929044150e+21   -4.2332940194258260e+21   -3.0315800487982913e+21   1.4440866409002280e+21   -1.5564117153524935e+22   -7.1646916021411675e+21   -9.1113948680373467e+21   -2.4190296955811461e+21   -5.7786092346882329e+21   8.1527186665655976e+19   -6.2675915428081372e+21   -4.4119096757916648e+21   -2.3046716556424346e+21   -5.0692764006066202e+21   -4.0932155862348695e+21   -4.3408764328303830e+21   -6.7578185800563378e+21   -5.0770243508854346e+21   -6.7127596165200190e+20   -6.6099329768918729e+21   -2.8235611593991478e+21   -4.3743215794496644e+21   -6.6485912935089192e+21   -3.9751561397181670e+21   -1.2868572603025250e+21   -4.8094180111460147e+21   -6.9605746361204736e+21   -9.4233334331349520e+20   -1.9170844459002909e+21   -5.0826943595377779e+21   -2.6779449677454629e+21   -2.2199695445447701e+20   -1.2270192447947766e+21   -4.0480188416393085e+21   -3.3844782920352473e+21   -5.0183149004397091e+20   -2.2120944386282286e+21   -4.2188304326791607e+21   -7.7241447051037958e+21   -1.2251951513322746e+21   -2.4666200479276980e+21   -3.5862380102146227e+21   -5.0591287677468635e+21   -8.1204041387275945e+21   -3.0005053081812698e+21   -4.7050546129470992e+21   -1.5643253040297253e+21   -3.8988532633677893e+21   -3.8283966170532932e+21   -4.1580972044546941e+21   -4.8384257740445980e+21   -4.5325752531000267e+21   -8.3645931972033228e+21   -1.0066561805048856e+21   8.3284056855544817e+20   -7.9870552414178834e+21   -3.6248230347625968e+20   -3.2419341773224710e+21   -3.5527235454517992e+21   -2.4374096483075967e+21   -2.3892105788599661e+21   -8.5549883214162074e+20   -2.5680222284386680e+21   -2.0063761326674511e+21   -4.3694534075587116e+21   -7.4879970031204817e+21   -6.1866216276665985e+21   -3.2001387637820605e+21   -6.4329029474719472e+20   -2.8101164770310042e+21   -3.0270813430779662e+21   -1.9713235911624271e+21   -2.1546181805992363e+21   -3.3033465235831118e+21   -3.8334974747868990e+21   -6.9258757052950706e+21   -1.0408458518411585e+22   -1.9638565512310112e+21   -2.3054039469854729e+21   -9.6435824442311883e+21   -6.0129281968312864e+20   -5.4791129687648413e+21   -5.2961049617302500e+21   -1.6015016660936737e+21   -4.3197779361292831e+21   -2.2164653564255142e+21   -1.2974552810786963e+22   -4.0029174827417930e+21   -9.3851902110840023e+21   -2.1410353585322145e+21   -3.3236767198529538e+21   -4.4349703961173421e+21   -4.2508613412583931e+21   -1.2604592597008088e+21   -3.5619348987482243e+20   -2.0682030283006348e+21   -4.8336409525629244e+21   -1.0225154088375301e+22   -1.3722700122792717e+21   -5.7047707430873696e+21   -2.9212395238160115e+21   -2.7092198719456920e+21   -7.3674360849626080e+21   -7.7759420492244677e+21   -9.3784084619624658e+20   -2.2661745442761080e+22   -5.1537016566603055e+20   -5.8758378040500525e+21   -3.7547757582179600e+21   -1.2504869598431106e+21   -2.7751284083227933e+21   -3.4657883215831100e+21   -3.8031959944595400e+21   -5.0649371545897481e+21   -4.4391834954130564e+21   -2.9485821134161309e+21   -4.8495547148959073e+21   4.9276406568107554e+20   -8.4310461524565767e+21   -1.8521655602890544e+21   -7.8506709352956455e+21   -3.3895225279822687e+21   -4.2254457653085460e+21   -7.5070688778276412e+21   -2.0548136964015071e+21   -7.5377353965612292e+21   -3.6315559908454092e+21   -6.2895487967208281e+21   -3.4951573812660132e+21   -3.4529060658342805e+21   -9.5456439112414069e+20   -1.4572598588887893e+21   -4.4728333584438374e+21   -1.2432191478617748e+21   -3.1299739089604565e+21   -1.0810948713321750e+22   -3.8213139429433095e+21   -2.8070886193574309e+21   -4.9070272564538701e+21   -1.7194679099925311e+21   -2.2624063514281852e+21   -6.4080422749621990e+20   -1.6903340821660243e+21   -2.7725890187749606e+21   -1.0103093526132475e+22   -8.9805255194096016e+21   -5.3831148028801277e+21   -4.7463507324145186e+21   3.7156071359415058e+20   -2.8240275730401251e+21   -1.2816458276106357e+21   -4.9314496201885777e+21   -8.8373170061007716e+20   -3.9399187808904581e+21   -7.6371229478669517e+20   -7.2890523171964364e+21   -5.9764785300073559e+21   -5.0167153782331456e+21   -1.6898446636786125e+21   -2.2045725416302046e+21   -4.2822094326056013e+20   -4.7367630332724311e+21   -5.6669541004233356e+21   -4.0171623927661561e+21   -5.5720008846966365e+21   -3.1285667516170109e+21   -1.2564820825905050e+21   -8.3521106823261003e+21   -3.5933450220087369e+21   -5.2857963331725851e+21   5.4571644021564716e+20   -2.1957919707656775e+21   -4.7991682692232532e+21   -6.9416074198150899e+20   -9.0791688877144602e+21   -4.9995600754351496e+21   -7.0871075916887768e+21   -2.7916746852714519e+21   -2.2114418915628365e+21   -9.6889040375154832e+21   -1.7523442426086102e+21   -5.2831137298260448e+21   -8.7786002835989846e+21   -4.0443046934463387e+21   -5.4692177224336922e+21   -5.4698957696591148e+21   -7.4508131439881132e+20   -1.9703833643368626e+21   1.1756315881000179e+21   -2.9678976865221450e+21   8.1635729371808055e+19   -8.1438982447784329e+20   -2.1869726475192194e+21   -2.6778484466439076e+21   -6.6741298657654452e+21   -6.4628567636356052e+21   -4.5477510657574463e+21   -2.6107142584898547e+21   -1.6846633069018738e+21   -1.6705304204973756e+21   -8.8108066558084383e+20   -4.0686760360728388e+21   -5.9881966569756473e+21   -1.9776173253765038e+21   -7.5023029065492568e+21   -2.7084956056167430e+21   -7.7281417789757247e+21   -2.5106893233558321e+21   -1.3833015402052193e+21   6.0415918253147200e+20   -1.2782834930700376e+21   -1.4001139804595751e+21   -5.1026532158912541e+21   -3.5542653035186225e+21   -2.2294950698428586e+21   -1.6351269641740899e+21   -2.0609149575546803e+21   -2.7656274758374633e+21   9.2652431528478953e+20   -3.0932932306183615e+21   -1.8016750155109992e+21   -7.9620936348547783e+21   -2.7511678080302926e+21   -4.0765294811779322e+21   -3.2476064274313820e+21   -4.8765929408532998e+21   -1.7725739045446363e+21   -2.9590827943353647e+21   -6.4217030362419859e+21   -2.7710417187595223e+20   -3.9126913061957874e+21   -6.0768029656187278e+21   -7.3217040318068089e+21   -6.2381160408977150e+21   -3.1123628812386179e+20   -1.2536785887187375e+21   -6.2073175869556117e+20   -5.0653678335470621e+21   -2.9117322998348078e+21   -1.3573675956219344e+21   -3.7529151129643401e+21   -7.1821816815219311e+20   -5.4277886807523774e+21   -2.8767212518780431e+21   -1.5746332774125813e+21   -1.1974733085202435e+21   -4.2146807633283451e+21   -4.1830597129649515e+21   -3.3152671810761078e+21   3.5607488737645429e+20   -4.6858709696200342e+21   -5.1405173477503643e+21   5.0228261256001167e+19   -1.6960105759470154e+21   -2.1358991180732265e+21   -3.8251835222168536e+21   -3.7871638053181781e+21   -8.5693645769752773e+20   -4.4248266720102239e+21   -1.2079102142050843e+22   -6.2713821723781056e+21   -3.5632807750474384e+21   -4.0460128047432786e+21   -2.5440442008350826e+21   -1.3196877777815790e+21   -1.8259204101180178e+21   -7.7146431635339000e+21   -8.0407723431459514e+20   -2.9753066630664511e+21   -1.9860033625593896e+21   -2.5031891194324388e+21   -3.0586688097157377e+21   -5.9931731385559066e+21   -2.9372967545539673e+21   -3.7559952565950701e+21   -2.6862069136964751e+21   -3.4177404263177142e+21   -4.1890358560071200e+21   -2.6593472088934066e+21   -6.3578428691975693e+21   -6.7429068354643045e+21   -2.0424358801974019e+21   -3.5057889369821749e+21   -5.8672993616449126e+21   -2.4704757587148438e+21   -3.4298810391385987e+21   -3.5859394956020763e+21   -5.3656844949295842e+21   -4.9767712872244990e+21   3.6360425728269713e+20   -4.9650766471179388e+21   -3.3894108722019067e+21   -5.0172126798443404e+21   -5.9740389121765105e+21   -3.5087114181045429e+21   -5.4501700572213422e+21   -1.7215525631331533e+21   -1.4572591783604624e+21   -3.0814129610367010e+21   -4.4776490316565531e+21   -1.2105666299637043e+21   -2.3661051533391985e+21   -2.1185753672166162e+21   -1.9527412346252868e+21   -1.6766561410463855e+21   -4.6771304046674785e+21   -2.2308753800963812e+21   -1.3636445810729033e+21   -4.3992642702319189e+21   -2.2745585453015884e+21   -2.2641419644456749e+21   -2.5468661494951995e+21   2.3146178299385660e+21   -5.9402834779340842e+21   -6.7210204096790989e+21   -1.8117791268265858e+21   -2.8023570273483416e+21   -1.7545809284709519e+21   -1.0753901393121823e+21   -2.6184209637341848e+21   -1.7495693115391229e+21   -8.6311435492332908e+21   5.3344777573672460e+19   -3.6564055213350846e+21   -1.6093268261902858e+21   -3.8314989513940329e+21   -6.8145171096588884e+21   -8.0811970265107105e+21   -3.6411061730940551e+21   -7.8347761355046299e+21   -2.2340881833295253e+21   -6.0703472831890603e+21   -1.6674637900889179e+21   -3.2818152836881512e+21   -1.9606255961645140e+21   -2.7057672480066230e+21   -4.3009798959521255e+21   -2.2192255480456206e+21   -6.1146146082468219e+21   -2.9399753575434787e+21   -1.4402221552886394e+21   -1.1509802216659327e+21   -3.2122244570486758e+21   -9.8703287710542096e+20   -3.4392175583871490e+21   1.2336416813927144e+21   -4.1740736224827235e+21   -3.1086196052029022e+21   1.3300725942325291e+21   -4.3091260111885943e+21   -1.7343672455463038e+21   -2.8554706213601626e+21   -3.1446724545205969e+21   -5.0844424879497869e+21   -3.2577084399804020e+21   -2.4212978608607792e+21   9.5733707049654918e+20   -8.9959977553415761e+21   -4.4645404807263992e+21   -3.9981397479162910e+21   -4.1146701489188372e+21   -1.9003759013702051e+21   -7.6360460156953703e+20   -2.3412170493927374e+21   -3.6901857624620642e+21   -8.7861043392570448e+21   -3.8840823305216438e+21   -1.3710356111091766e+22   -3.6297952469982375e+21   -6.6113579878335277e+21   6.2867656482503315e+20   -3.5046310500337315e+21   -3.4724308734993980e+21   -6.7216596472877298e+20   -1.4744260664082935e+21   -4.9687221870057373e+21   -6.6242344971362055e+21   -9.3996682773305360e+20   -1.3207279644201074e+21   -2.2013485425863623e+21   -3.0019438136512280e+21   -5.4107267022543808e+21   -2.5658384557946941e+21   -8.4157390317912473e+21   -1.7114681945565710e+21   -2.0656649153239919e+21   -3.1584666492842179e+21   -8.6873375384614273e+20   8.1470006597654413e+20   -3.9761681827135766e+21   -3.1075275698369148e+21   -3.8038769687197379e+21   -2.1615528254734797e+21   -2.7940184393694472e+21   -2.6264368786137216e+20   -5.9595013007624634e+21   -3.8543365281228404e+20   -1.1760434628766142e+21   -2.5274281353136078e+21   1.4894829800569852e+19   -5.8092794053125976e+21   -5.0865577497013644e+21   -2.1309521345197551e+21   -6.2152309304601304e+21   -6.8049080508714949e+21   -4.5198257668704379e+21   -1.4668080013541827e+21   -3.7038029961201802e+21   -3.0963716334823738e+21   -3.8937876712690187e+21   -1.6938742216577366e+21   -7.0005327139883115e+21   -6.1466555703028540e+21   -4.6987820891425766e+21   -4.0328661348193686e+21   -2.4226549382404532e+20   -6.3536134362748672e+21   -3.5365740287953753e+21   -4.3469746757060180e+21   -3.6141706428158999e+21   -7.2003889603466850e+21   -2.0363544188406735e+21   -2.2046335589267056e+21   -7.1785653550964382e+20   6.3452150725737723e+20   -6.2917434667621469e+21   -3.8651349839985645e+21   -6.5016814943425371e+21   -1.2816163530638872e+22   -5.0612020477174890e+21   -3.1854255766831141e+21   -2.1688902957121339e+21   -1.0084911978449037e+21   -3.5957078110105271e+21   -6.6360870155297961e+21   -2.1899370688355993e+21   -4.5018278742289060e+21   -3.0307435576207684e+21   -3.5533692066937244e+21   -2.0105387504461755e+21   -7.5663908073531496e+21   -4.4141815709728464e+21   -4.4358921056713703e+21   -2.7530518971440851e+21   -3.9203975309906957e+21   -1.1280462253635221e+22   -4.5366710475019125e+21   -4.0713077068413833e+21   -2.8205574291493618e+21   -2.6718387674296211e+21   -2.9559102570897138e+21   -1.3411501743259459e+21   -2.0908868031235752e+21   -8.7027245802766388e+20   -1.5040135313548986e+21   -2.7834460623463572e+21   -6.0292064728374722e+21   4.6939671887719006e+20   4.7958735352156966e+21   -3.3759545412173903e+21   -6.3127293462280471e+20   -3.3655896819522753e+21   -2.6862332345086331e+21   -1.8934838056255438e+21   -4.9175835183183970e+21   -4.5446080283614773e+21   -8.0138702204347833e+21   -1.1573513261299794e+21   -2.5870282038022756e+21   -2.8037354973760717e+21   -1.0639706971017696e+20   7.0985550558299750e+20   -6.1840776488207652e+21   -5.7237026402852313e+20   -1.9661547298577905e+21   -5.9648484299376584e+21   -6.9451317880700440e+21   -5.7463816266078036e+21   -2.1445608347078076e+20   -9.8520556951859804e+21   -3.1881076257579614e+21   -7.8361170298490312e+21   -2.1025118332264559e+20   -9.7923330658842876e+20   -2.5502466603808499e+21   -2.5087048793901210e+21   -5.8479813238481245e+21   -3.3950672150487777e+21   -1.5481503439888279e+21   -1.9506736585816830e+21   -4.6089740958921466e+21   -1.0114692977582958e+21   -1.2057654490547513e+21   8.3007864884611758e+18   8.7084004238768053e+20   -4.6422803424191893e+20   -2.8160804804878297e+21   -4.9590431372814215e+21   -9.7231891284934095e+21   -2.0178536431345882e+21   -1.3991869715637763e+21   -1.2700558820308453e+21   -7.2699120992579192e+21   -4.4677010257154576e+21   2.4964286019576660e+21   -3.7039626698564945e+21   -1.5509812842310869e+21   -4.3328847043662971e+21   -4.7588944932513084e+21   -4.3067212631926516e+21   -4.2986363259428117e+21   -3.5009106361115570e+21   -5.7352889858202408e+21   -2.9820208026764512e+21   -3.6666812043274140e+21   7.4747744052689987e+20   -3.4393711220817773e+21   -3.0328384730188837e+21   -4.4132593059890557e+21   -6.9345365085102235e+21   -2.5311461448724104e+21   -2.1473128452076216e+21   -4.7215637193412659e+21   -2.4274525854247546e+21   -5.8568467476493631e+21   -3.3004119040002469e+21   -4.8661371185298942e+21   -3.2111096473876771e+19   -1.8733912046162923e+21   -2.5870943905072603e+21   -2.0767125596334656e+21   -1.9098342582770220e+21   -2.5637724638406304e+21   -3.0966332379220022e+21   -3.0002807492897391e+21   -4.7913227444414872e+21   -7.1987725674810284e+21   -2.4620911835050803e+20   -4.4971373581535501e+21   -1.9887995395651556e+21   -3.2796973022806414e+21   -4.2937572463157780e+21   -7.4794986239728078e+21   -2.0206763212246716e+21   -6.6136601477362273e+21   -2.2652620782637626e+21   -3.1172703249315356e+21   -9.3450721385309392e+20   2.0469643066931366e+18   -2.8149735603586046e+21   -3.1281600910039114e+21   -5.7114890502559425e+21   -6.1954702248472569e+20   -7.3883173405201164e+20   -1.3954443136038527e+21   -3.3768647161379621e+21   -5.1865466425906792e+21   -1.0370074635398283e+22   -8.8455135328582697e+20   -1.1557955266443258e+21   -3.5773072008923966e+21   -2.4461606229714749e+21   -6.4000871801043624e+21   -2.5339269422271169e+21   -4.2492906732576514e+21   -1.1110259035510945e+21   -7.9361245305851336e+21   -4.5926292071016086e+21   -3.6819925114331873e+21   -5.0774723767603508e+21   -5.7117944832981079e+21   -4.6669093878904253e+21   -1.8770003057040244e+21   -2.5653834237553305e+21   -2.3616015843304449e+21   -2.8744831672878136e+21   -3.2024600443695740e+21   -1.4799400275516884e+21   -2.5385573747741143e+21   -3.5953707652403823e+21   -3.8506432632157603e+21   -5.1216878886069063e+20   -4.1342104262483231e+21   -3.1478772954942706e+21   -5.7756538892977816e+21   -2.2908417715274236e+19   -1.5435284043686509e+21   -3.9949506633362608e+21   -7.8291203563855164e+20   -2.0377284546500171e+21   -4.4516664309413754e+20   -1.8476634067845555e+21   -2.3059642210256594e+21   -4.4985388590072693e+20   -1.0996349466542689e+21   -6.3234556487585214e+21   -3.1448951336326943e+21   -2.3059833042574851e+21   -2.8409607303005979e+21   -3.1407511210656803e+21   -3.9814693491071784e+21   -1.8895085401606044e+21   5.5552823776748495e+19   2.2677969535304335e+20   -2.0596013514032520e+21   -3.1700991055262699e+20   -1.6924256633189661e+21   1.5387409553635105e+20   -3.4628403575354415e+21   -3.0203160473619619e+21   -3.2858600883648344e+19   -1.9657994823483025e+21   -2.7168590071962204e+21   -1.4872292262292813e+21   -2.9526051712328815e+21   -4.9975477511714064e+21   -6.1073632888183283e+21   -1.9883860182433939e+21   -6.7254697564559733e+21   -3.8794763978295749e+21   -2.3383077523215562e+21   -5.9211321169809506e+21   -4.0909531257890144e+21   -4.7629350041129202e+20   -9.8454582297780732e+19   -2.1671762597601367e+21   -5.0768606329936732e+21   -3.0437600552867500e+21   -2.0756249216274719e+21   -2.7987530421475312e+20   -1.4184418300421027e+21   -3.2660141729131560e+21   -1.4265349504016308e+21   -3.2476947402074227e+20   1.0625246652086923e+21   -1.9068737000445331e+21   -3.0382135974247614e+21   -7.7107236803957516e+20   -5.6262134943549286e+20   -4.5295903590881076e+21   2.8725136030457777e+20   -3.1916711808524186e+21   -3.5889311052024571e+20   -3.5861421821981921e+21   -2.7671452195534584e+21   -2.3889562161254514e+21   -2.5480942048277955e+21   -5.0841301408619050e+20   -2.5902437699031825e+21   -8.1197687182180404e+20   2.1204827678553129e+19   3.7884108603982263e+20   7.8445078355426175e+20   -4.0378702144849959e+21   -2.1649865876284357e+21   -2.7548409709779689e+21   -7.3651634353025647e+20   1.5861496324316353e+21   -1.9884849253180029e+21   -7.0909990321598916e+21   -2.6181735579180791e+21   -3.0992241247752694e+21   -2.8968814348110460e+21   1.3339494900604414e+20   -6.0156407994633067e+20   9.0925576224665410e+20   -2.2389479721909176e+21   -2.1572318152262070e+21   -4.4332158619188079e+21   -4.6191266511632178e+21   -3.9966365287289696e+21   -5.5334271508693752e+21   -3.4438277113056199e+21   -3.8677867460889459e+21   -4.6130856333876029e+21   -6.4657568078660412e+21   -4.2790074065879344e+21   -2.1603907836952096e+21   -3.9402870620596548e+21   -5.2721543379419692e+21   -1.0810162113179314e+21   -3.2948510167980882e+21   -2.6098705828955942e+21   -3.7516033335096771e+21   -1.8908649217204245e+21   -6.9658189813508178e+19   -4.1289092664085887e+21   -8.4680980387768859e+21   -3.1858286748510711e+21   -1.0303600726983954e+21   -3.5026153593633049e+21   -7.4131163602936207e+18   -1.2247822560491112e+21   -6.4329257418290522e+20   5.8765486664465075e+20   -1.1260751009506043e+21   -4.5849007204268868e+20   -3.4948451619336791e+21   -3.9924244777875166e+21   -4.4021625479857681e+20   -2.3152430352955639e+21   -4.2206865057378814e+21   1.1677478358944611e+21   3.1762343009519157e+21   -4.4839658934112889e+21   2.7922812221715566e+21   -3.8967445107379856e+21   -4.8398382938377515e+21   -1.0064833621907816e+21   3.4578669864257264e+20   -5.7820528053824006e+21   -2.0223609074702835e+21   8.9866141828793188e+19   -4.0083546702885468e+21   -2.7082938028012282e+21   -4.3494110261361187e+20   -5.5621569518784773e+21   -2.9409134844989585e+21   -6.3520887783648317e+20   -1.7673326814154690e+21   -1.1621735512586461e+21   -2.5336469110980818e+21   -2.8434033457360132e+21   -1.8541030985912911e+21   -4.8648609481597450e+21   -9.9781231468637336e+20   -3.2002441064176845e+20   -4.289664542884638