<?xml version="1.0"?>
<VTKFile type="UnstructuredGrid"  version="0.1"  >
<UnstructuredGrid>
<Piece  NumberOfPoints="2534" NumberOfCells="4892">
<Points>
<DataArray  type="Float64"  NumberOfComponents="3"  format="ascii">0 3 0  0 -3 0  6 -3 0  6 3 0  3 -3 0  6 0 0  3 3 0  0 0 0  3 0 0  0 -1.5 0  1.5 -3 0  1.5 3 0  0 1.5 0  6 -1.5 0  4.5 -3 0  6 1.5 0  4.5 3 0  4.25 -1.25 0  1.75 1.25 0  2.25 -1.5 0  4.5 0.75 0  1.541666666666667 -0.2083333333333333 0  3.219827586206896 1.521551724137931 0  1.125 -1.875 0  4.875 1.875 0  0.8702651515151515 0.631628787878788 0  2.25 2.214285714285714 0  3.316176470588236 -1.904411764705882 0  5.214285714285714 -0.75 0  5.03125 -2.03125 0  0.96875 2.03125 0  4.041666666666667 -0.2083333333333333 0  0.8205128205128206 -0.9134615384615387 0  3.942582294752138 2.189194098250713 0  3.061487638533674 -0.968243819266837 0  2.192708333333333 0.4427083333333334 0  4.157850026972511 -2.182329047049442 0  2.331456616463011 -0.5285296485744057 0  3.654761904761905 0.5654761904761902 0  5.25 1.125 0  2.563673341677096 -2.280663329161452 0  5.126674107142857 0.1283482142857142 0  0.75 -3 0  0 -2.25 0  6 2.25 0  5.25 3 0  0.7680051888903191 -0.1384245958639337 0  1.617229471026718 -1.006949429867069 0  4.218940341429579 1.468686552856807 0  3.75 -3 0  2.25 -3 0  0.75 3 0  5.25 -3 0  6 -0.75 0  0 -0.75 0  0 0.75 0  2.25 3 0  6 -2.25 0  0 2.25 0  3.75 3 0  6 0.75 0  1.787573018358365 -2.279142327213878 0  3.195025188237337 2.273430909158844 0  2.528159645294386 1.151699106559287 0  1.041598427383826 1.322848427383826 0  1.520951704545454 0.4634232954545453 0  1.580357142857143 2.325892857142857 0  4.919642857142857 -1.361607142857143 0  4.54981623521892 -0.6483700862895494 0  2.99317863826574 0.6697091957925523 0  3.450169349029507 -0.4574865881858001 0  3.605016126014028 -1.323102984840902 0  2.745144658907412 1.882241931337371 0  0.4898065586600511 1.092777516238393 0  0.5 -1.875 0  1.217028489597945 -2.469323836800685 0  1.659912685567181 -1.604738056701542 0  5.4375 1.6875 0  5.34375 2.34375 0  4.52741779500503 2.384139265001677 0  3.375 -2.514804579549941 0  0.5446428571428571 -2.455357142857143 0  2.766554087216865 -1.745795909102064 0  4.525516559010988 0.1490283123570637 0  3.87554132162248 -0.8280516069565407 0  4.53622906132958 -1.76963146596888 0  0.4243951612903226 1.875 0  0.554851858345021 2.446861709948876 0  5.575604838709677 -1.875 0  5.445148141654979 -2.446861709948876 0  4.875 -2.575604838709677 0  1.440573466105381 1.721823466105381 0  2.193519495405082 1.631799415080963 0  5.472630128027442 -1.330813078900983 0  4.750126894286386 1.343813447143193 0  5.607142857142857 -0.375 0  2.625 2.607142857142857 0  0.3921763197810531 0.375 0  5.60901753622775 0.3750000000000001 0  1.125 2.613454943235572 0  3.701856738980915 1.163867513386733 0  3.736112850688509 1.696746876851408 0  3.519183195491339 0.06065128742606851 0  3.973620778217027 -1.693401606145563 0  0.8125 -1.444978632478633 0  1.256657745408029 -0.6381828923025001 0  0 -1.125 0  5.019997778514942 0.6475044429701156 0  4.125 3 0  1.285569332703024 0.8955310332120207 0  0 -0.375 0  0.4638922275641027 -0.5625 0  2.056635259780241 -0.07226025978024064 0  2.130475508371123 -1.000827820434028 0  2.677484372338113 -1.267299126394495 0  2.848680878891876 -0.4956836878192376 0  4.937901885089369 -0.3340245904575954 0  4.393563081308854 1.919544166973803 0  4.053859126323572 0.2813938488760716 0  1.181051704329518 0.1167440895674965 0  1.971354166666667 2.607142857142857 0  4.875 3 0  2.519350561152006 0.08093582719875507 0  3.139443301924015 -1.442524927271905 0  6 2.625 0  1.849169256239503 1.945480934753207 0  1.867196483071171 0.7892354369530077 0  1.192506522009051 -1.184888428863342 0  3.375 3 0  3.603234392481833 2.536866305538572 0  3.846752908916648 -2.537707634073423 0  2.014339897513945 -1.886932065281681 0  4.038392037966526 0.8363324773944992 0  4.421242701722609 -2.552534687860327 0  3.715389848650903 -2.108856956172843 0  2.985668138820625 1.127780908772207 0  0.4500794934449803 -1.173696061598557 0  3.366760888116476 0.8891914618875614 0  1.869163043700093 -0.6107175804171328 0  2.175114838273305 -2.53928723780967 0  3.014417665538299 -2.241523065744933 0  2.625 -3 0  2.819968145332426 -2.617202329573456 0  5.625 1.3125 0  5.563263538826679 0.814027077653358 0  5.625 3 0  2.550041671270923 0.7074928970804664 0  4.014583091741168 2.59891853892166 0  0.6440729668673318 1.499523832583132 0  5.219449799568244 -1.660557808485412 0  3.474012636702472 -0.9300738420779746 0  0.8125 -2.142857142857143 0  1.875 -3 0  4.945010515846405 2.554471797033147 0  2.611388969012422 -0.8478354915063726 0  3.223746055611014 0.3371683159691745 0  4.843939757110898 -0.9483610977948225 0  4.66556954816842 -2.220888354477256 0  4.125 -3 0  4.448108395110625 -0.2524000502731018 0  5.63671875 2.05078125 0  2.822484133964224 1.491327727709286 0  3.378213092764193 1.903125093887009 0  5.607142857142858 -0.9231200445788541 0  2.12639693023183 1.100450516019641 0  5.625 -3 0  0.375 3 0  0 2.625 0  6 -2.625 0  0.3931307155906299 -0.01856779822591927 0  0.8549199714190221 -0.5218333744252657 0  0.7651723094668359 0.253768144801553 0  1.421989550604507 -2.133299471886336 0  1.582611957351803 -2.615166692128227 0  4.420331038793115 1.133144382396504 0  0.375 -3 0  0 -2.625 0  5.078156723571596 1.54697017071479 0  1.877250715260938 -1.288801575378032 0  2.409169073010687 -1.916147168931784 0  1.146151077069952 -0.268000681695328 0  1.726784828652036 0.1335728643263411 0  2.745628549924675 0.3838821021397905 0  3.011490900297165 2.613625569196862 0  5.62463365164608 -4.137655439684362e-05 0  1.875 3 0  1.125 3 0  6 0.375 0  2.625 3 0  6 -1.125 0  6 -0.375 0  4.875 -3 0  6 -1.875 0  3.375 -3 0  1.125 -3 0  0 -1.875 0  0 0.375 0  0 1.125 0  0 1.875 0  6 1.125 0  6 1.875 0  4.813017731148975 0.9677363687196439 0  2.807371623148303 2.264962208227767 0  0.3692953377255688 0.7436406761680247 0  5.615625 2.615625 0  0.9395725521479794 0.9812935874921043 0  1.390920759130215 1.238984550166515 0  0.9588795022085095 1.672288500195331 0  0.87712392565124 -2.641031728267331 0  0.3665732993114588 -1.532068934251388 0  1.841944504733106 1.591700334213738 0  4.832970185136452 0.3385359233091246 0  4.169083540479082 -0.5746148619765254 0  5.281697083409333 -0.2046640461936881 0  4.072845380968044 1.784516523483641 0  1.293029195762321 -1.543079049035419 0  4.878733886054284 -1.720697370582964 0  3.609167475697567 -1.687579152754035 0  4.836981942878573 2.222259978217028 0  4.204938267037067 -0.9128589669335569 0  5.183079748175263 -1.111742407358677 0  1.469404041858679 2.654509729682302 0  1.22880920402559 2.273525645756405 0  4.566761045622856 -1.414165869120005 0  4.531680518427715 1.606803989975667 0  1.918929241273175 2.27471131819245 0  3.590183783343969 2.184680610175416 0  1.85683899811842 0.4533569963423589 0  1.173935704088662 0.4636872214645547 0  2.116602160898525 -2.207718541460878 0  4.51821874648995 -1.042568353750147 0  2.721551512787618 -0.1859357475290837 0  5.294921875 2.001953125 0  5.288671874999999 2.670703125 0  2.199940744527116 0.7756512213396931 0  4.090519467638897 1.163401080812838 0  2.298177083333333 2.670581371753247 0  2.484362362207526 -2.687319997637033 0  3.300530569898859 1.207053005217563 0  3.936078051808127 -1.362164062673065 0  5.341218841330105 0.5689885832563615 0  4.226314635599414 0.5638853401248238 0  2.524510956818563 1.635483567726497 0  0.3219546452225031 1.389066019009203 0  3.139061555368706 -0.3133905221155423 0  3.145569907612562 -0.6461828528638952 0  3.701427442033566 -0.2272880199383185 0  1.686782510365738 -1.934662341426927 0  2.427696494631844 1.944064773844184 0  3.901817839425732 1.422433381251312 0  2.356489883772755 -0.2025512972825912 0  4.820757576351118 -0.01647699434507374 0  3.064415631228375 1.809719380809516 0  4.643002705009462 2.69782572459795 0  4.31624250429496 2.728112685900672 0  1.520100694408069 -1.314302747998057 0  3.754559308601717 -0.5375020107416889 0  0.25 -2.0625 0  0.8125 -1.826636904761905 0  4.861738621091127 -0.6367294570749906 0  1.545149590740081 2.015832101819233 0  3.857113324620078 0.04127675193819436 0  0.3162874907704933 -0.864918315983958 0  4.21293081604216 2.352874368135467 0  3.123697687162562 -2.708090473740421 0  3.415275466010259 -2.202892416689829 0  3.601103065320932 -2.727566580522146 0  1.558629964945672 -0.5289921609136927 0  3.324859026263307 -1.198136798699183 0  2.424350759683917 -1.092246517929194 0  2.789248065239812 0.8954629970670158 0  0.8882026075771248 2.364936378889839 0  0.8066140242673685 2.679750706449505 0  4.504454978490482 0.4491616076730165 0  4.26881784709759 -0.009649566552704852 0  1.313479173834523 -2.758675889510418 0  1.120577805361368 -2.179971784090952 0  3.734048623985226 0.8602850349907256 0  3.527828882622877 1.432983527791925 0  1.959527908877504 -1.578124930685265 0  0.7602573574724077 1.220872343399509 0  0.6691217533356228 0.8531987603309893 0  1.877213035764122 -2.564340152892596 0  3.304349402914068 2.552016594979913 0  4.285565286275464 -1.569057178671076 0  4.227521511146333 -1.876903861267543 0  5.34375 1.40625 0  5.71875 1.59375 0  1.56245959534423 0.766197796710638 0  0.2458241530773257 2.4375 0  0.2794123857609179 2.138568368155198 0  5.754175846922674 -2.4375 0  5.720587614239082 -2.138568368155198 0  0.6472458227887359 2.124973059628837 0  5.124241021325378 -2.352544055105642 0  5.189172233440652 -2.675873509996353 0  5.364643151640443 -2.12768524739804 0  2.298896485720138 1.348573610321417 0  0.6008689899200503 -2.745193425346304 0  0.307092513690391 -2.651812055231556 0  0.2683745826107009 -2.363146293324415 0  0.5223214285714285 -2.165178571428571 0  0.5169611136983336 2.740349995819724 0  5.607469108596883 -2.699891746740618 0  2.138439274270545 1.947386893596098 0  1.25507379660067 1.953406658386351 0  4.135759889512124 -2.476847355718572 0  2.548249345531056 -1.538893887888457 0  2.771010284190282 -2.05339728351
[...]
<CellData  Scalars="f_26-2"> 
<DataArray  type="Float64"  Name="f_26-2"  format="ascii">-5.0989372823688750e+21   -6.3276845849997035e+21   -9.4113076180715590e+21   -8.1657358680812117e+21   -9.0005673445245583e+21   -1.6550155024572214e+22   -5.9134215187247179e+21   -7.6490347014646949e+20   -6.4515339100710607e+20   -5.0745404849516299e+21   -4.4418016759281987e+21   -8.7238536259840267e+21   -3.2336793787289053e+21   -1.0660312410305885e+22   -9.1900771769529480e+20   -6.6531175705610300e+21   -8.8769222422876851e+21   -2.0820114560889402e+20   -6.5605284383465427e+21   -3.7532021115589807e+21   -1.1360402332528664e+22   -2.6450531566942227e+21   -7.1539777841305024e+21   -3.7291510882610273e+21   -5.1343327917033998e+21   -6.6016414660362502e+21   -1.1941676801126656e+22   -4.1419066510509065e+21   -4.0903631160823770e+21   -6.1484089572358724e+21   -2.9852687265243852e+21   -3.0968315942646307e+21   -5.2588587610211856e+21   -4.9142106472187911e+21   -5.4506713014259826e+21   -6.0967818503456408e+21   -7.5028584255193329e+21   1.4644853987912209e+21   -9.4197812541499596e+21   -6.4829284345248272e+21   -2.5162683363503280e+21   -5.8063566032830286e+21   -4.1594644178453943e+21   1.9811964399011839e+21   -2.1346486740696233e+22   -9.8309748126852695e+21   -1.2501398190475857e+22   -3.3177877988526229e+21   -7.9299680168475676e+21   1.1183028445373969e+20   -8.6007336815215688e+21   -6.0546002373870690e+21   -3.1611866598996653e+21   -6.9526788746642247e+21   -5.6140934751146088e+21   -5.9562077756182653e+21   -9.2709148179971158e+21   -6.9628938021464074e+21   -9.2065490985698381e+20   -9.0670749215362772e+21   -3.8731825203835054e+21   -5.9991835928706008e+21   -9.1192949167327187e+21   -5.4523410093818050e+21   -1.7651016088092960e+21   -6.5974204984558784e+21   -9.5460970591885669e+21   -1.2926399746255644e+21   -2.6303358920679317e+21   -6.9729791683304568e+21   -3.6744108698279844e+21   -3.0450588387076840e+20   -1.6831651787640943e+21   -5.5535696519784437e+21   -4.6429509080316641e+21   -6.8837477470882850e+20   -3.0342810111653718e+21   -5.7867732940597011e+21   -1.0594679082935046e+22   -1.6805588652250667e+21   -3.3835630554472902e+21   -4.9187829528414787e+21   -6.9385184298207879e+21   -1.1137997849046710e+22   -4.1158007836012514e+21   -6.4535142987161445e+21   -2.1460774871754041e+21   -5.3480971721406478e+21   -5.2509745648534825e+21   -5.7027360130011832e+21   -6.6360681478556295e+21   -6.2180264880757591e+21   -1.1474597207309107e+22   -1.3807162528312737e+21   1.1422990575175715e+21   -1.0954785230176077e+22   -4.9713826737267121e+20   -4.4464414288815136e+21   -4.8751773122831246e+21   -3.3447610991614781e+21   -3.2767033435044011e+21   -1.1733008788376064e+21   -3.5220773689343507e+21   -2.7517812726737855e+21   -5.9941810335126294e+21   -1.0272010351631172e+22   -8.4861217854869597e+21   -4.3895013510017004e+21   -8.8227250318403122e+20   -3.8539607987937665e+21   -4.1523478200773043e+21   -2.7041103576552707e+21   -2.9550196813321171e+21   -4.5306050936932878e+21   -5.2574623871432424e+21   -9.4984722498841666e+21   -1.4277345682589605e+22   -2.6938035916688175e+21   -3.1623638481348639e+21   -1.3228803433906137e+22   -8.2467407265169434e+20   -7.5182097147704944e+21   -7.2669421098693286e+21   -2.1970700048710236e+21   -5.9251870316215455e+21   -3.0401816487697056e+21   -1.7799561873681518e+22   -5.4918789221696835e+21   -1.2874799154405554e+22   -2.9372292926208585e+21   -4.5601453945025840e+21   -6.0846748775102787e+21   -5.8311638208674592e+21   -1.7289995221902549e+21   -4.8851102332138167e+20   -2.8366629317929793e+21   -6.6296577342145047e+21   -1.4024556482487692e+22   -1.8822334402124657e+21   -7.8246100047905182e+21   -4.0067786668259861e+21   -3.7159534403440785e+21   -1.0108964366711983e+22   -1.0669418893846541e+22   -1.2868973557591808e+21   -3.1095688425710071e+22   -7.0690713756525409e+20   -8.0598279812292280e+21   -5.1501324408541434e+21   -1.7151752329039357e+21   -3.8063555013731172e+21   -4.7537518923233498e+21   -5.2163674860224386e+21   -6.9466169647005644e+21   -6.0883720580644083e+21   -4.0442121622394839e+21   -6.6513401351218806e+21   6.7584816448115232e+20   -1.1564417851934881e+22   -2.5407961853815198e+21   -1.0769416424543169e+22   -4.6509528222748241e+21   -5.7980877972174621e+21   -1.0298332477762283e+22   -2.8184984125668967e+21   -1.0338811915386684e+22   -4.9809971880377849e+21   -8.6278768867889371e+21   -4.7945727081008301e+21   -4.7385586459037139e+21   -1.3093235583022179e+21   -1.9988588081321743e+21   -6.1345744085641404e+21   -1.7051209938920808e+21   -4.2954133103332226e+21   -1.4836276991164217e+22   -5.2418956717045255e+21   -3.8505910334289703e+21   -6.7311557832045389e+21   -2.3585454769557691e+21   -3.1030898209600921e+21   -8.7893335183982369e+20   -2.3188553705094518e+21   -3.8039912667335025e+21   -1.3863068800683937e+22   -1.2321567164427569e+22   -7.3826953021161776e+21   -6.5096345981547237e+21   5.0960421429985863e+20   -3.8742310343940118e+21   -1.7582702843022850e+21   -6.7631865174082401e+21   -1.2119880402867187e+21   -5.4034264568875849e+21   -1.0474161246191899e+21   -9.9996462980986684e+21   -8.1984864207262250e+21   -6.8808688344600056e+21   -2.3177759607421351e+21   -3.0241388871874060e+21   -5.8744207837262768e+20   -6.4968277067719078e+21   -7.7727503667087194e+21   -5.5094447211133796e+21   -7.6419333888518715e+21   -4.2907547575722002e+21   -1.7232575071723460e+21   -1.1454994108965198e+22   -4.9282378734950699e+21   -7.2494119420669922e+21   7.4879745241488307e+20   -3.0129337940692293e+21   -6.5861728856327722e+21   -9.5217847516192755e+20   -1.2453859947468131e+22   -6.8605613847659560e+21   -9.7213828892158675e+21   -3.8293417604251208e+21   -3.0330506923186334e+21   -1.3288808722324613e+22   -2.4034137169644083e+21   -7.2458952235332948e+21   -1.2040459247024249e+22   -5.5471116821605929e+21   -7.5051548637377436e+21   -7.5064102637517354e+21   -1.0219076006991672e+21   -2.7024114642569716e+21   1.6126415054790664e+21   -4.0708973870548590e+21   1.1196200971941698e+20   -1.1170034171991361e+21   -2.9993461243000290e+21   -3.6726034103449603e+21   -9.1531471961917384e+21   -8.8653591818501955e+21   -6.2377483592529273e+21   -3.5827189433976955e+21   -2.3108859646406471e+21   -2.2916781589396618e+21   -1.2087894902428050e+21   -5.5823834152442926e+21   -8.2139706515798412e+21   -2.7127990645322332e+21   -1.0291311626441453e+22   -3.7152716795864364e+21   -1.0600998120513453e+22   -3.4440211641806697e+21   -1.8971451887783009e+21   8.2864355327675964e+20   -1.7533395189396509e+21   -1.9204313037080754e+21   -6.9987876662331845e+21   -4.8750722523996755e+21   -3.0580433737685302e+21   -2.2426593277442209e+21   -2.8267036979462259e+21   -3.7931441352440236e+21   1.2707864525987174e+21   -4.2440739211301649e+21   -2.4720213915292664e+21   -1.0920769232468720e+22   -3.7734879200130598e+21   -5.5913325662767971e+21   -4.4565039485392802e+21   -6.6919163408225193e+21   -2.4311755197322080e+21   -4.0585324655033204e+21   -8.8074666428879350e+21   -3.8007434568311990e+20   -5.3665520522643395e+21   -8.3351535719277123e+21   -1.0042487152695090e+22   -8.5563336091835228e+21   -4.2690125533406632e+20   -1.7196513423623638e+21   -8.5158590678953492e+20   -6.9492781682051074e+21   -3.9940623631430357e+21   -1.8619798542203106e+21   -5.1480191169816208e+21   -9.8520919396057534e+20   -7.4466226360965199e+21   -3.9464436122194543e+21   -2.1596797532263117e+21   -1.6423190505280040e+21   -5.7811172595583691e+21   -5.7368867221645107e+21   -4.5469382657757780e+21   4.8836878596776447e+20   -6.4264740786931981e+21   -7.0500009598461548e+21   6.8915476397089153e+19   -2.3262291951162486e+21   -2.9297269378794180e+21   -5.2468620006233379e+21   -5.1948361860925893e+21   -1.1754817772185647e+21   -6.0696619944729138e+21   -1.6574313196485167e+22   -8.6059476809720445e+21   -4.8892494854689726e+21   -5.5510865255927980e+21   -3.4900202961227434e+21   -1.8103940772852500e+21   -2.5045779569469125e+21   -1.0587359035773195e+22   -1.1035318036829319e+21   -4.0811141691331932e+21   -2.7242085625426010e+21   -3.4336659994464034e+21   -4.1955759590438994e+21   -8.2209117974077490e+21   -4.0291699216588787e+21   -5.1516040445164006e+21   -3.6843736218504664e+21   -4.6881906156386863e+21   -5.7461956522737475e+21   -3.6482595400288179e+21   -8.7220649663801170e+21   -9.2496691722154032e+21   -2.8016817701405867e+21   -4.8095279257504616e+21   -8.0494486336168002e+21   -3.3897287098773222e+21   -4.7057638820822212e+21   -4.9182393839404838e+21   -7.3592919190184374e+21   -6.8254876806264054e+21   4.9865941410710546e+20   -6.8095490090999354e+21   -4.6485181973365633e+21   -6.8845746940638606e+21   -8.1976706715431574e+21   -4.8125203891700346e+21   -7.4751992594940088e+21   -2.3614376931634693e+21   -1.9987112151137428e+21   -4.2269647560943594e+21   -6.1421244589111194e+21   -1.6605756028144845e+21   -3.2453281804161945e+21   -2.9057590405455099e+21   -2.6793424515240286e+21   -2.3005800863623458e+21   -6.4159630168488841e+21   -3.0602344912245269e+21   -1.8711047600459363e+21   -6.0358987514425838e+21   -3.1198320152695386e+21   -3.1055407143873135e+21   -3.4934836784385643e+21   3.1748958912517552e+21   -8.1472892697167213e+21   -9.2180275206155057e+21   -2.4850635524091156e+21   -3.8436405982380284e+21   -2.4065318163758370e+21   -1.4750147956403006e+21   -3.5931261446975620e+21   -2.4009531305091027e+21   -1.1844946861972351e+22   7.3192489927279673e+19   -5.0152587206835139e+21   -2.2081312781200809e+21   -5.2565789271511049e+21   -9.3482078274293984e+21   -1.1086588785842675e+22   -4.9952821956674343e+21   -1.0745975786471340e+22   -3.0640886021952132e+21   -8.3281527644659017e+21   -2.2876855878937398e+21   -4.5020872283209177e+21   -2.6896331404780896e+21   -3.7115946688499800e+21   -5.8999500761767482e+21   -3.0440749598621549e+21   -8.3872321641305352e+21   -4.0326115501666746e+21   -1.9754103616662696e+21   -1.5786927789140515e+21   -4.4059140473155092e+21   -1.3538394079878481e+21   -4.7173440365034131e+21   1.6919987666191948e+21   -5.7248850605727652e+21   -4.2645276572111743e+21   1.8246103384542727e+21   -5.9123480416613806e+21   -2.3795487568196524e+21   -3.9165731405065418e+21   -4.3131644461383926e+21   -6.9750280925824491e+21   -4.4690469750403566e+21   -3.3216383533700324e+21   1.3133449175673337e+21   -1.2344045898165641e+22   -6.1264180320490414e+21   -5.4863387332976585e+21   -5.6434078375166419e+21   -2.6064966482439176e+21   -1.0473615185861759e+21   -3.2111756121388089e+21   -5.0614123120738488e+21   -1.2050898399890686e+22   -5.3273375400573503e+21   -1.8804597368873047e+22   -4.9791239383485472e+21   -9.0687781726340881e+21   8.6237198596494538e+20   -4.8074229065958220e+21   -4.7634501180098158e+21   -9.2201201419802680e+20   -2.0223366139068589e+21   -6.8151691790263528e+21   -9.0894119085387977e+21   -1.2898374799064178e+21   -1.8113268154091029e+21   -3.0191030360926281e+21   -4.1170635516028109e+21   -7.4205073030043025e+21   -3.5192925733493350e+21   -1.1542970750480761e+22   -2.3473070474517123e+21   -2.8330430580250614e+21   -4.3319321262757134e+21   -1.1914752222862325e+21   1.1175670990671025e+21   -5.4545531745955868e+21   -4.2627195275025575e+21   -5.2179314252544790e+21   -2.9650869398859908e+21   -3.8332614724247801e+21   -3.6033843308174095e+20   -8.1747772812956931e+21   -5.2873676430258183e+20   -1.6129827162692376e+21   -3.4665043546067472e+21   2.0431540120240525e+19   -7.9677918089353070e+21   -6.9778662102194717e+21   -2.9233407963075602e+21   -8.5264743445128995e+21   -9.3352730587909398e+21   -6.1991063651507744e+21   -2.0117912828415550e+21   -5.0804313345459696e+21   -4.2472779032421990e+21   -5.3409971909848287e+21   -2.3234469507857653e+21   -9.6013648596063727e+21   -8.4302570964554948e+21   -6.4467582547348548e+21   -5.5332378614602473e+21   -3.3230312862593771e+20   -8.7141427977256058e+21   -4.8503958816606409e+21   -5.9618197137932901e+21   -4.9594717500913106e+21   -9.8801088621896238e+21   -2.7944531418504202e+21   -3.0253325217909593e+21   -9.8465721288421265e+20   8.7034905096632507e+20   -8.6305599982886883e+21   -5.3019394978662391e+21   -8.9184586553888426e+21   -1.7576978618612275e+22   -6.9412804328562853e+21   -4.3688276177208974e+21   -2.9751173518657700e+21   -1.3833640216415838e+21   -4.9315571283030914e+21   -9.1013735376294689e+21   -3.0033919417039077e+21   -6.1740934231197347e+21   -4.1566294243401374e+21   -4.8733520198084361e+21   -2.7579871404081865e+21   -1.0379123501391128e+22   -6.0544183193870564e+21   -6.0841966018687696e+21   -3.7760659262616591e+21   -5.3771778332773675e+21   -1.5472179594292984e+22   -6.2224281158875045e+21   -5.5841415583280860e+21   -3.8690727927962109e+21   -3.6650724917125920e+21   -4.0538976675465344e+21   -1.8397421004505030e+21   -2.8681923252625657e+21   -1.1937615313543910e+21   -2.0630762972539058e+21   -3.8173753426638196e+21   -8.2687118748611804e+21   6.4378086773122492e+20   6.5775946023547877e+21   -4.6300894245867251e+21   -8.6577265590841259e+20   -4.6158411497793572e+21   -3.6840969217475383e+21   -2.5973252704482225e+21   -6.7454734263669490e+21   -6.2343393715111141e+21   -1.0993149178886463e+22   -1.5875933935992106e+21   -3.5489875367070028e+21   -3.8456283910856114e+21   -1.4592613044865642e+20   9.7368523674523887e+20   -8.4827788267252498e+21   -7.8497119086933246e+20   -2.6969797233665691e+21   -8.1804754523434223e+21   -9.5262728619222075e+21   -7.8814305043482380e+21   -2.9433510523173215e+20   -1.3520379928883342e+22   -4.3726877611658618e+21   -1.0747750417511932e+22   -2.8841716601310613e+20   -1.3432010351132572e+21   -3.4982297083509007e+21   -3.4412542238662428e+21   -8.0210431119248641e+21   -4.6564654456827517e+21   -2.1243230356690821e+21   -2.6765819539985337e+21   -6.3217909654470043e+21   -1.3873337767735583e+21   -1.6537118303337578e+21   1.1382008362097674e+19   1.1945532004509320e+21   -6.3681213495250767e+20   -3.8630421029284369e+21   -6.8028306355459205e+21   -1.3334881812250207e+22   -2.7673967503087601e+21   -1.9191416777082035e+21   -1.7420137878908274e+21   -9.9714260635987288e+21   -6.1278449887081713e+21   3.4238538603577124e+21   -5.0801141584114829e+21   -2.1271855917108730e+21   -5.9426118048857373e+21   -6.5276881622208778e+21   -5.9074278737098236e+21   -5.8960040568978974e+21   -4.8018767351549704e+21   -7.8671412738709562e+21   -4.0904558211452308e+21   -5.0292167816328721e+21   1.0252283588653777e+21   -4.7169222648077668e+21   -4.1593721483466144e+21   -6.0532901631934574e+21   -9.5114845744406431e+21   -3.4731827845387334e+21   -2.9465244996874068e+21   -6.4788165567013276e+21   -3.3309759899036103e+21   -8.0325146649810635e+21   -4.5264071268842943e+21   -6.6759054345619647e+21   -4.3970900393051030e+19   -2.5696626900721735e+21   -3.5485708778284594e+21   -2.8485017192246228e+21   -2.6196078031718203e+21   -3.5173427839734697e+21   -4.2484500273599863e+21   -4.1168693957620049e+21   -6.5735701317259016e+21   -9.8735665873994341e+21   -3.3769808804122342e+20   -6.1675555581164656e+21   -2.7275230175065832e+21   -4.5002879556510642e+21   -5.8917564155237593e+21   -1.0257662764021956e+22   -2.7712393592060316e+21   -9.0743658927273269e+21   -3.1082879387411824e+21   -4.2767797983986466e+21   -1.2821603667170249e+21   2.8148836741321733e+18   -3.8612233543762020e+21   -4.2910966891928507e+21   -7.8348127204612107e+21   -8.4976060545873714e+20   -1.0133705576410827e+21   -1.9139579791548209e+21   -4.6316256064263988e+21   -7.1137062503087184e+21   -1.4223219775922495e+22   -1.2132856837513187e+21   -1.5857244868740844e+21   -4.9076613221842546e+21   -3.3558446040006389e+21   -8.7796266872096120e+21   -3.4765000038637964e+21   -5.8301413767197795e+21   -1.5243938954942808e+21   -1.0887603340173965e+22   -6.3005671174012204e+21   -5.0498141304708976e+21   -6.9636729707880010e+21   -7.8382616826828785e+21   -6.4045467214892457e+21   -2.5755575056956229e+21   -3.5202296128395459e+21   -3.2390231845443684e+21   -3.9425662603828192e+21   -4.3934938503296126e+21   -2.0302452516471864e+21   -3.4819915002619143e+21   -4.9316001455471958e+21   -5.2816863598437833e+21   -7.0251782853405193e+20   -5.6704217446823211e+21   -4.3175262170008052e+21   -7.9259728293103256e+21   -3.1448163229102735e+19   -2.1171111685839960e+21   -5.4794968485022432e+21   -1.0738121559873134e+21   -2.7948947152316043e+21   -6.1064990763525865e+20   -2.5344134159391208e+21   -3.1627290382880221e+21   -6.1702980635368830e+20   -1.5082507475781490e+21   -8.6730764484555068e+21   -4.3134160225395545e+21   -3.1627663277883790e+21   -3.8964583783254799e+21   -4.3076457838005552e+21   -5.4608199803512983e+21   -2.5915352583232375e+21   7.6183233940193444e+19   3.1105788967121722e+20   -2.8251780981562477e+21   -4.3475418890351490e+20   -2.3211156028449237e+21   2.1103358539832852e+20   -4.7494533462917361e+21   -4.1425082897215295e+21   -4.5082814397208969e+19   -2.6962910464559604e+21   -3.7263464487481524e+21   -2.0398134086754702e+21   -4.0517087190487411e+21   -6.8579145700347677e+21   -8.3802507359623557e+21   -2.7283449805023153e+21   -9.2245914213280100e+21   -5.3210471786190052e+21   -3.2072668279149775e+21   -8.1222884147948253e+21   -5.6117114615529168e+21   -6.5337062462561636e+20   -1.3509307760312079e+20   -2.9727612210807466e+21   -6.9640800625413818e+21   -4.1753820026344739e+21   -2.8474860558411256e+21   -3.8399498586081670e+20   -1.9458778738657840e+21   -4.4814117354823415e+21   -1.9568543692878958e+21   -4.4550053799142857e+20   1.4573085210917562e+21   -2.6154274232640869e+21   -4.1667639038792911e+21   -1.0574927664436436e+21   -7.7164312933235858e+20   -6.2123386289244739e+21   3.9394433831187055e+20   -4.3774635324022441e+21   -4.9224550401866183e+20   -4.9184855520680555e+21   -3.7963652881044010e+21   -3.2775269527681489e+21   -3.4950606957743618e+21   -6.9735946812911544e+20   -3.5529755848788856e+21   -1.1137513502842846e+21   2.9083426147103744e+19   5.1963645864512717e+20   1.0761769106865922e+21   -5.5390771307957558e+21   -2.9694568000973109e+21   -3.7784930929412465e+21   -1.0101399801099367e+21   2.1753878723372911e+21   -2.7273870686429391e+21   -9.7259902628350310e+21   -3.5915119378596962e+21   -4.2513812139573295e+21   -3.9734505825895721e+21   1.8296123338427174e+20   -8.2513212552677032e+20   1.2472337735071624e+21   -3.0719601853675964e+21   -2.9598398571321544e+21   -6.0830162782164059e+21   -6.3379913692449394e+21   -5.4818269086142756e+21   -7.5898095818339527e+21   -4.7236610698302393e+21   -5.3050797593903707e+21   -6.3283529086867541e+21   -8.8697505947567606e+21   -5.8704080642195776e+21   -2.9640666332178746e+21   -5.4064021228303124e+21   -7.2333881496532345e+21   -1.4833392849468966e+21   -4.5210894181365810e+21   -3.5795615582057629e+21   -5.1454369694597209e+21   -2.5934107559408210e+21   -9.5552454910813848e+19   -5.6640580288423657e+21   -1.1616484809530671e+22   -4.3701940326691378e+21   -1.4134006663983616e+21   -4.8047902567671571e+21   -1.0128666959062182e+19   -1.6797412832532604e+21   -8.8226566970503214e+20   8.0593736834564882e+20   -1.5443705884028510e+21   -6.2879822070071532e+20   -4.7930090495945589e+21   -5.4779665624906628e+21   -6.0395687579177268e+20   -3.1759810648490461e+21   -5.7897627357443407e+21   1.6017650808801051e+21   4.3567571135129075e+21   -6.1498639225012229e+21   3.8297497930141412e+21   -5.3445490054217471e+21   -6.6380088149266504e+21   -1.3804832172743094e+21   4.7426579216563254e+20   -7.9297455052977508e+21   -2.7735703957912703e+21   1.2324788450550941e+20   -5.4982328619893522e+21   -3.7145718168666301e+21   -5.9652708799950147e+20   -7.6281820488080776e+21   -4.0333063087006988e+21   -8.7126477277177669e+20   -2.4241111507125692e+21   -1.5949019676094523e+21   -3.4770401253421309e+21   -3.8999251204234554e+21   -2.5430011172801452e+21   -6.6741952762211457e+21   -1.3689535227369271e+21   -4.3891482406527494e+20   -5.883296499898923