<?xml version="1.0"?>
<VTKFile type="UnstructuredGrid"  version="0.1"  >
<UnstructuredGrid>
<Piece  NumberOfPoints="2534" NumberOfCells="4892">
<Points>
<DataArray  type="Float64"  NumberOfComponents="3"  format="ascii">0 3 0  0 -3 0  6 -3 0  6 3 0  3 -3 0  6 0 0  3 3 0  0 0 0  3 0 0  0 -1.5 0  1.5 -3 0  1.5 3 0  0 1.5 0  6 -1.5 0  4.5 -3 0  6 1.5 0  4.5 3 0  4.25 -1.25 0  1.75 1.25 0  2.25 -1.5 0  4.5 0.75 0  1.541666666666667 -0.2083333333333333 0  3.219827586206896 1.521551724137931 0  1.125 -1.875 0  4.875 1.875 0  0.8702651515151515 0.631628787878788 0  2.25 2.214285714285714 0  3.316176470588236 -1.904411764705882 0  5.214285714285714 -0.75 0  5.03125 -2.03125 0  0.96875 2.03125 0  4.041666666666667 -0.2083333333333333 0  0.8205128205128206 -0.9134615384615387 0  3.942582294752138 2.189194098250713 0  3.061487638533674 -0.968243819266837 0  2.192708333333333 0.4427083333333334 0  4.157850026972511 -2.182329047049442 0  2.331456616463011 -0.5285296485744057 0  3.654761904761905 0.5654761904761902 0  5.25 1.125 0  2.563673341677096 -2.280663329161452 0  5.126674107142857 0.1283482142857142 0  0.75 -3 0  0 -2.25 0  6 2.25 0  5.25 3 0  0.7680051888903191 -0.1384245958639337 0  1.617229471026718 -1.006949429867069 0  4.218940341429579 1.468686552856807 0  3.75 -3 0  2.25 -3 0  0.75 3 0  5.25 -3 0  6 -0.75 0  0 -0.75 0  0 0.75 0  2.25 3 0  6 -2.25 0  0 2.25 0  3.75 3 0  6 0.75 0  1.787573018358365 -2.279142327213878 0  3.195025188237337 2.273430909158844 0  2.528159645294386 1.151699106559287 0  1.041598427383826 1.322848427383826 0  1.520951704545454 0.4634232954545453 0  1.580357142857143 2.325892857142857 0  4.919642857142857 -1.361607142857143 0  4.54981623521892 -0.6483700862895494 0  2.99317863826574 0.6697091957925523 0  3.450169349029507 -0.4574865881858001 0  3.605016126014028 -1.323102984840902 0  2.745144658907412 1.882241931337371 0  0.4898065586600511 1.092777516238393 0  0.5 -1.875 0  1.217028489597945 -2.469323836800685 0  1.659912685567181 -1.604738056701542 0  5.4375 1.6875 0  5.34375 2.34375 0  4.52741779500503 2.384139265001677 0  3.375 -2.514804579549941 0  0.5446428571428571 -2.455357142857143 0  2.766554087216865 -1.745795909102064 0  4.525516559010988 0.1490283123570637 0  3.87554132162248 -0.8280516069565407 0  4.53622906132958 -1.76963146596888 0  0.4243951612903226 1.875 0  0.554851858345021 2.446861709948876 0  5.575604838709677 -1.875 0  5.445148141654979 -2.446861709948876 0  4.875 -2.575604838709677 0  1.440573466105381 1.721823466105381 0  2.193519495405082 1.631799415080963 0  5.472630128027442 -1.330813078900983 0  4.750126894286386 1.343813447143193 0  5.607142857142857 -0.375 0  2.625 2.607142857142857 0  0.3921763197810531 0.375 0  5.60901753622775 0.3750000000000001 0  1.125 2.613454943235572 0  3.701856738980915 1.163867513386733 0  3.736112850688509 1.696746876851408 0  3.519183195491339 0.06065128742606851 0  3.973620778217027 -1.693401606145563 0  0.8125 -1.444978632478633 0  1.256657745408029 -0.6381828923025001 0  0 -1.125 0  5.019997778514942 0.6475044429701156 0  4.125 3 0  1.285569332703024 0.8955310332120207 0  0 -0.375 0  0.4638922275641027 -0.5625 0  2.056635259780241 -0.07226025978024064 0  2.130475508371123 -1.000827820434028 0  2.677484372338113 -1.267299126394495 0  2.848680878891876 -0.4956836878192376 0  4.937901885089369 -0.3340245904575954 0  4.393563081308854 1.919544166973803 0  4.053859126323572 0.2813938488760716 0  1.181051704329518 0.1167440895674965 0  1.971354166666667 2.607142857142857 0  4.875 3 0  2.519350561152006 0.08093582719875507 0  3.139443301924015 -1.442524927271905 0  6 2.625 0  1.849169256239503 1.945480934753207 0  1.867196483071171 0.7892354369530077 0  1.192506522009051 -1.184888428863342 0  3.375 3 0  3.603234392481833 2.536866305538572 0  3.846752908916648 -2.537707634073423 0  2.014339897513945 -1.886932065281681 0  4.038392037966526 0.8363324773944992 0  4.421242701722609 -2.552534687860327 0  3.715389848650903 -2.108856956172843 0  2.985668138820625 1.127780908772207 0  0.4500794934449803 -1.173696061598557 0  3.366760888116476 0.8891914618875614 0  1.869163043700093 -0.6107175804171328 0  2.175114838273305 -2.53928723780967 0  3.014417665538299 -2.241523065744933 0  2.625 -3 0  2.819968145332426 -2.617202329573456 0  5.625 1.3125 0  5.563263538826679 0.814027077653358 0  5.625 3 0  2.550041671270923 0.7074928970804664 0  4.014583091741168 2.59891853892166 0  0.6440729668673318 1.499523832583132 0  5.219449799568244 -1.660557808485412 0  3.474012636702472 -0.9300738420779746 0  0.8125 -2.142857142857143 0  1.875 -3 0  4.945010515846405 2.554471797033147 0  2.611388969012422 -0.8478354915063726 0  3.223746055611014 0.3371683159691745 0  4.843939757110898 -0.9483610977948225 0  4.66556954816842 -2.220888354477256 0  4.125 -3 0  4.448108395110625 -0.2524000502731018 0  5.63671875 2.05078125 0  2.822484133964224 1.491327727709286 0  3.378213092764193 1.903125093887009 0  5.607142857142858 -0.9231200445788541 0  2.12639693023183 1.100450516019641 0  5.625 -3 0  0.375 3 0  0 2.625 0  6 -2.625 0  0.3931307155906299 -0.01856779822591927 0  0.8549199714190221 -0.5218333744252657 0  0.7651723094668359 0.253768144801553 0  1.421989550604507 -2.133299471886336 0  1.582611957351803 -2.615166692128227 0  4.420331038793115 1.133144382396504 0  0.375 -3 0  0 -2.625 0  5.078156723571596 1.54697017071479 0  1.877250715260938 -1.288801575378032 0  2.409169073010687 -1.916147168931784 0  1.146151077069952 -0.268000681695328 0  1.726784828652036 0.1335728643263411 0  2.745628549924675 0.3838821021397905 0  3.011490900297165 2.613625569196862 0  5.62463365164608 -4.137655439684362e-05 0  1.875 3 0  1.125 3 0  6 0.375 0  2.625 3 0  6 -1.125 0  6 -0.375 0  4.875 -3 0  6 -1.875 0  3.375 -3 0  1.125 -3 0  0 -1.875 0  0 0.375 0  0 1.125 0  0 1.875 0  6 1.125 0  6 1.875 0  4.813017731148975 0.9677363687196439 0  2.807371623148303 2.264962208227767 0  0.3692953377255688 0.7436406761680247 0  5.615625 2.615625 0  0.9395725521479794 0.9812935874921043 0  1.390920759130215 1.238984550166515 0  0.9588795022085095 1.672288500195331 0  0.87712392565124 -2.641031728267331 0  0.3665732993114588 -1.532068934251388 0  1.841944504733106 1.591700334213738 0  4.832970185136452 0.3385359233091246 0  4.169083540479082 -0.5746148619765254 0  5.281697083409333 -0.2046640461936881 0  4.072845380968044 1.784516523483641 0  1.293029195762321 -1.543079049035419 0  4.878733886054284 -1.720697370582964 0  3.609167475697567 -1.687579152754035 0  4.836981942878573 2.222259978217028 0  4.204938267037067 -0.9128589669335569 0  5.183079748175263 -1.111742407358677 0  1.469404041858679 2.654509729682302 0  1.22880920402559 2.273525645756405 0  4.566761045622856 -1.414165869120005 0  4.531680518427715 1.606803989975667 0  1.918929241273175 2.27471131819245 0  3.590183783343969 2.184680610175416 0  1.85683899811842 0.4533569963423589 0  1.173935704088662 0.4636872214645547 0  2.116602160898525 -2.207718541460878 0  4.51821874648995 -1.042568353750147 0  2.721551512787618 -0.1859357475290837 0  5.294921875 2.001953125 0  5.288671874999999 2.670703125 0  2.199940744527116 0.7756512213396931 0  4.090519467638897 1.163401080812838 0  2.298177083333333 2.670581371753247 0  2.484362362207526 -2.687319997637033 0  3.300530569898859 1.207053005217563 0  3.936078051808127 -1.362164062673065 0  5.341218841330105 0.5689885832563615 0  4.226314635599414 0.5638853401248238 0  2.524510956818563 1.635483567726497 0  0.3219546452225031 1.389066019009203 0  3.139061555368706 -0.3133905221155423 0  3.145569907612562 -0.6461828528638952 0  3.701427442033566 -0.2272880199383185 0  1.686782510365738 -1.934662341426927 0  2.427696494631844 1.944064773844184 0  3.901817839425732 1.422433381251312 0  2.356489883772755 -0.2025512972825912 0  4.820757576351118 -0.01647699434507374 0  3.064415631228375 1.809719380809516 0  4.643002705009462 2.69782572459795 0  4.31624250429496 2.728112685900672 0  1.520100694408069 -1.314302747998057 0  3.754559308601717 -0.5375020107416889 0  0.25 -2.0625 0  0.8125 -1.826636904761905 0  4.861738621091127 -0.6367294570749906 0  1.545149590740081 2.015832101819233 0  3.857113324620078 0.04127675193819436 0  0.3162874907704933 -0.864918315983958 0  4.21293081604216 2.352874368135467 0  3.123697687162562 -2.708090473740421 0  3.415275466010259 -2.202892416689829 0  3.601103065320932 -2.727566580522146 0  1.558629964945672 -0.5289921609136927 0  3.324859026263307 -1.198136798699183 0  2.424350759683917 -1.092246517929194 0  2.789248065239812 0.8954629970670158 0  0.8882026075771248 2.364936378889839 0  0.8066140242673685 2.679750706449505 0  4.504454978490482 0.4491616076730165 0  4.26881784709759 -0.009649566552704852 0  1.313479173834523 -2.758675889510418 0  1.120577805361368 -2.179971784090952 0  3.734048623985226 0.8602850349907256 0  3.527828882622877 1.432983527791925 0  1.959527908877504 -1.578124930685265 0  0.7602573574724077 1.220872343399509 0  0.6691217533356228 0.8531987603309893 0  1.877213035764122 -2.564340152892596 0  3.304349402914068 2.552016594979913 0  4.285565286275464 -1.569057178671076 0  4.227521511146333 -1.876903861267543 0  5.34375 1.40625 0  5.71875 1.59375 0  1.56245959534423 0.766197796710638 0  0.2458241530773257 2.4375 0  0.2794123857609179 2.138568368155198 0  5.754175846922674 -2.4375 0  5.720587614239082 -2.138568368155198 0  0.6472458227887359 2.124973059628837 0  5.124241021325378 -2.352544055105642 0  5.189172233440652 -2.675873509996353 0  5.364643151640443 -2.12768524739804 0  2.298896485720138 1.348573610321417 0  0.6008689899200503 -2.745193425346304 0  0.307092513690391 -2.651812055231556 0  0.2683745826107009 -2.363146293324415 0  0.5223214285714285 -2.165178571428571 0  0.5169611136983336 2.740349995819724 0  5.607469108596883 -2.699891746740618 0  2.138439274270545 1.947386893596098 0  1.25507379660067 1.953406658386351 0  4.135759889512124 -2.476847355718572 0  2.548249345531056 -1.538893887888457 0  2.771010284190282 -2.05339728351
[...]
<CellData  Scalars="f_26-2"> 
<DataArray  type="Float64"  Name="f_26-2"  format="ascii">5.3982091265684922e+19   -2.4115188766169639e+20   3.0137382318554638e+20   -1.1646106354287257e+20   -1.2536321585336063e+20   4.1307222840466629e+19   1.0388937509093620e+20   -2.7167271322776105e+19   -4.6596891239639869e+20   -1.2696443045702967e+19   -2.9955987343611822e+19   1.9591236087438174e+20   -2.7969721207196638e+20   1.8952976112892402e+20   4.3238961863128364e+20   -5.3184605919775965e+19   -1.6738781392303273e+20   1.1883135464360616e+20   -1.0792524173348970e+19   2.1830813652185881e+20   1.0582454515796643e+20   -7.3419335616119800e+19   -2.0739375456272836e+20   -3.1748458261250526e+20   -1.3986012445338131e+20   -2.0642837522445674e+20   -7.9065575714115650e+19   1.5375237325623034e+20   6.9723219171485082e+19   -1.9208068080387745e+20   -2.2897789304655439e+20   -5.1006102443740896e+20   -1.8176394733255308e+20   -3.0446634677968418e+20   -1.8498030844053599e+20   1.3160282142813859e+20   7.6667539317209268e+19   -7.3326172426297172e+19   -2.2892532306816628e+20   8.9736858677604041e+19   5.2247845010647654e+19   5.0964958815653634e+19   3.2488754234633349e+20   3.0241435733924046e+20   9.1039193681702126e+19   2.6866477605610029e+20   2.1033817929663690e+20   -3.3659039074512575e+20   2.4917961131128809e+20   2.9353698311428905e+20   2.5302035012014319e+20   -2.6679265487522202e+19   -9.8036743836191703e+19   2.5067529800167257e+20   7.6985546739884753e+19   2.5260534729570193e+20   8.3876827699805340e+19   2.7876490219817081e+20   -5.3799887900611268e+20   -2.3224179214955135e+19   1.9692227930267927e+20   -4.7403291692254711e+20   -4.1109002783142568e+19   1.3846794411749773e+19   -1.7847111011467526e+20   -4.8116992124340339e+19   -6.0743274473260555e+20   -2.8208246540801147e+20   2.4042901292026656e+20   -1.7004936083169575e+20   2.0891639547714791e+20   -4.3633520853942845e+19   -3.0550846769332604e+20   -1.9254735470056017e+20   5.7699680391674749e+19   -7.3151225619387294e+19   8.4761107121587667e+19   1.3565202322526878e+20   -1.0130086240321366e+20   -2.3831294309612991e+20   -5.8044092658510643e+19   -4.0066821595629273e+19   2.7275404860446384e+19   3.7181992257127580e+19   -2.0545643439383976e+20   3.9661040187924100e+20   -7.1994162383689933e+19   -1.3055029175625946e+20   1.3067453281619594e+20   1.8042448275202556e+20   -3.6053895764530240e+20   -6.1619996825711059e+19   -4.8118287503276081e+19   -2.1014457159163458e+19   -9.2169124208708403e+19   -1.9788949894695086e+20   -2.4221309921168012e+20   2.5249038111703027e+20   1.3487374518984579e+20   -3.7539286650272711e+19   3.0764970346185707e+20   2.9985917842432406e+20   -2.7945542064371290e+19   1.4784205999809966e+19   -2.0387300663771211e+20   -5.0012301381733496e+20   -6.4464417507745546e+19   -9.5297549939935232e+19   -5.4082767990400393e+19   4.3415712255066718e+19   -3.9168213848741345e+18   1.1172952923974309e+20   -8.2646643073851425e+19   3.8171699731231437e+18   -7.1321821745919151e+20   -2.4429460837179376e+20   2.7081474899498267e+19   5.3749345172665614e+19   -2.6377992389726069e+19   -2.7723448712072751e+20   1.7796401572310617e+20   -1.0174732699009670e+20   1.6435544712230892e+20   -4.0003363595363516e+19   -8.9321729901254771e+19   -2.4066921678004624e+20   2.3173724308963666e+20   9.2635007466777948e+18   -6.1257401375993142e+20   -2.0827232292765398e+20   -1.7964749782084377e+20   -3.7163122816738566e+19   -3.2434441400174517e+20   5.0185713620855374e+19   -1.8265332435861291e+20   -2.6286952163379003e+19   3.7763762044246155e+19   1.8022745387919241e+19   -8.0612203046723011e+19   -4.5596241292016984e+19   -7.7085902191595897e+19   1.3245387462812071e+20   3.3240916419124697e+20   3.0896238076729946e+19   -2.3905804464422132e+20   -2.1693688523794686e+19   1.2379350232863275e+20   -2.1350445359397172e+20   -1.3037987287354796e+20   8.3044848241444045e+19   -1.1526655432014584e+20   -3.6995445815843561e+19   7.0594959969941930e+19   8.9665985585396367e+19   1.2086458522938676e+20   3.9813201100369953e+19   2.1368177769418185e+20   -6.6469197482442867e+19   1.7875510130717183e+20   1.0643422665229504e+20   -5.5136757871119409e+19   2.8800705758648133e+20   3.9553061734364132e+20   -2.5027372041816578e+20   1.9771581192059437e+20   1.0601722772023121e+20   1.6100187724828258e+19   -1.9111765381909709e+20   -2.0431080287631173e+20   1.3507565025869072e+20   3.3119047923042542e+19   -9.2211236986856194e+19   -2.3830626312823056e+20   2.0134458781701071e+19   -1.4325315919411639e+20   -1.7323891320718996e+18   -5.4689488628964504e+20   -2.0935547924361812e+20   -2.5125798203746576e+20   5.9636576656887611e+19   9.2701195322981958e+19   -2.2457326111715908e+20   1.0649301906945986e+20   -1.1162594076115454e+20   -5.0077518665305170e+19   -8.1420047859494732e+19   -2.0298243697587506e+20   -4.5058498597357191e+19   -8.2686464389261427e+19   1.8024945794176862e+19   3.2263458044206316e+18   -3.1651795962536893e+20   -3.5419067184738592e+20   3.3092977421496182e+20   8.6892340221437493e+19   2.3987619404856063e+20   -4.0147599771725283e+19   1.4835845357851886e+20   -2.0004685301527855e+20   -6.3561181001717809e+19   -2.4390721894961994e+20   -5.9343419306693247e+19   1.0698254931845561e+20   1.0560928376751143e+20   3.1060807644450472e+19   1.8131174256249147e+19   -4.7789722032803067e+20   5.4994834018721116e+18   -4.2959762094505696e+20   -2.1615234911336894e+20   2.2457315248334461e+20   2.6500588206734639e+20   2.0535989197936984e+19   -9.8761355652470211e+19   2.5241944371277814e+20   1.2171686165179241e+20   1.0056315474377477e+20   9.4059627259513111e+19   4.0985527928935160e+20   -1.9478447323015797e+20   -4.9735115389377520e+19   -3.2334173758528435e+20   -3.1488439539268891e+20   7.8704634049848607e+19   -4.5490707091940491e+19   7.9468045239040393e+19   1.3411522045798595e+20   1.5660658604457270e+20   1.0090004823538689e+18   2.7359500942266489e+20   3.0345513782888458e+20   -2.6302326243769070e+20   -4.1630342663853507e+20   -4.0184220007645512e+19   -1.4155854505780136e+20   -1.6485092996084108e+20   1.6037263091411553e+20   1.3053326272271344e+20   -1.9169874164917836e+20   -4.7533966607150391e+19   -1.4450298757713858e+20   -5.3166568746187244e+19   1.0493201611906114e+20   6.5790890111404941e+19   -1.6513134916078158e+20   -5.4990540860756808e+18   -3.3355436910448116e+20   7.8000820786013323e+19   -9.4795615987697320e+19   8.4344800471129719e+19   -1.9078625385880486e+20   -2.9582741963741364e+20   1.1540276681255973e+19   2.2827289724291983e+20   -3.0229656895894520e+20   -2.5461027391019621e+20   3.8793077912171446e+19   -4.9607802778373436e+20   -1.9416500187830462e+20   -8.8901638152422048e+19   2.4949553174022642e+20   1.0701311099374913e+20   1.6917377717882575e+20   1.1848117505042073e+20   4.0057550949780737e+20   3.0082059608397637e+20   3.4587571203581759e+20   -2.1521318841357500e+20   -4.9864664493339391e+20   1.3531649757628306e+20   3.3522896664799904e+20   -2.4442478329273106e+20   -1.9404457359974331e+20   -1.2787862581983838e+20   -1.3677184643198416e+20   -2.0647966697524570e+20   -1.4701583011396021e+20   1.9307631121516626e+20   1.1515525742413978e+20   -5.6822281176205746e+19   4.2670080708354064e+19   -6.5419021999842902e+19   8.0054864442058228e+19   -1.2022925221762600e+20   -3.8065162760325038e+20   -1.1975351098432279e+20   -6.2703776827422884e+19   -1.9880773292550406e+20   1.6046271138022724e+19   -2.0147651408265937e+20   1.1431363504264587e+20   4.7436224021060905e+20   7.5828878856673903e+19   1.2264298829157558e+20   -4.1085141151628657e+20   -2.7627144454267253e+19   2.0551381531592999e+20   1.2503409339682605e+20   4.6543741951675498e+19   2.2693065232615345e+20   -8.0476004357727991e+20   4.6365521255502650e+20   -2.2609705210594895e+20   -5.9440960225111253e+19   -1.0004113924766764e+20   -2.5636504635715286e+20   -1.6890530086420333e+20   -4.3962008598440329e+19   -4.2078850558542463e+19   -1.0993466644293263e+20   1.7592701658569841e+20   -1.1178463830709487e+20   1.0833490261868241e+20   9.7802654681319047e+19   2.1615125264758879e+20   2.3709673009293207e+20   -9.9119643998762320e+19   -1.2548937659295640e+19   2.0129392925881172e+19   -6.8986067588898005e+19   -6.1185903531151860e+19   -2.1391725806812293e+20   2.9756850477835420e+20   4.0232366229325709e+19   -2.9295569403907840e+20   4.5030013544233542e+19   -3.0209332591123130e+20   -1.8634530265863484e+20   -4.2377217610378143e+20   -3.5086458924989239e+19   1.1545596836481271e+20   9.1198325058426192e+19   4.0014238137490938e+20   -1.3386843162250883e+19   7.4733981435301020e+19   3.6605632939232350e+19   -3.1575425705350352e+20   1.6149025250262335e+20   -6.8078321043886424e+19   2.4691444564192014e+19   1.1484580616526384e+20   2.7958502222653122e+20   9.8220655294419649e+19   1.5255552655147852e+19   2.4831697842487761e+20   -3.5978979147461014e+20   -3.0260080582139216e+20   -2.8813311880065932e+20   -8.7086121378270609e+19   -9.5757664281417122e+19   -1.6888808657422883e+19   -9.8124515997912973e+19   9.8221256736586056e+18   -6.6293178708616012e+19   -8.5204718097983685e+19   1.5335504476202192e+20   1.7995686098288627e+20   -3.6791850993878012e+19   6.2126747641833521e+20   1.4077923760798599e+20   2.1562128006897087e+20   -1.4970785908452592e+19   1.0924178479861055e+20   6.4359549610447045e+19   -5.4203247252757299e+19   -1.4982141652217007e+20   -5.2857390903600423e+19   6.3013905500114893e+18   2.2641117490911511e+19   3.1750124873792217e+19   -1.9760530438976215e+20   3.7339289007431287e+20   5.0345865396647723e+19   -2.1080302010463699e+19   1.6648605658338388e+20   -2.8692865466331188e+20   -5.5231412329738614e+20   -3.8415813139473850e+19   -5.2108675879835034e+19   3.2467393444598129e+19   1.7834411256851035e+20   3.4878531041982605e+20   1.5605630624901798e+20   1.6149923464166467e+20   1.1444240000597913e+20   -2.4739513650600716e+20   6.3068418420625482e+19   -4.2706991241899639e+19   8.0733300154722222e+19   -5.0644267667101196e+19   -1.0107860183886486e+19   -8.8909210501085430e+19   2.4470821267278715e+20   -7.6352563340817449e+19   -2.4888806963549254e+19   -1.1449738299027993e+20   -2.4726962410965968e+20   -1.6766098068337266e+20   9.5564203810166079e+19   1.8850864157429963e+20   2.4283159295047618e+20   5.5365488419711607e+19   -1.9471631857260374e+20   -1.8691062660949770e+20   1.5736216489212110e+20   -6.6013611085680132e+19   9.3624974308784570e+19   -3.5057908148694273e+20   -2.7591218450526395e+20   -7.9076678487366631e+19   1.0819235454041994e+20   -2.1256200117295396e+20   -5.1960595625888344e+20   1.8226432331665539e+20   3.6780116200514843e+19   1.3501435499951417e+20   -9.4294658117587927e+19   -1.1154967792362213e+20   1.8964617236171203e+19   -1.6881707576570865e+20   1.4750442857786335e+20   -2.2200253211898665e+20   -9.0018529749134950e+19   -2.1256332587342837e+20   2.2721963809776511e+20   2.5243009715403309e+20   2.8733196520065158e+20   -3.8147016156822184e+19   -2.0694261328822105e+20   -3.2408558580263158e+20   -1.9336773132274847e+20   -2.1470264440277615e+20   -4.3892766267169407e+19   -2.0767537975827759e+20   -5.5704837994641300e+20   -8.8746523683615396e+18   -6.4075439204031078e+19   -6.1792828984906534e+20   -4.6279734633038460e+20   -1.1715218720461685e+20   -3.2882661428208291e+20   -4.1207885095493226e+20   -1.0795024557508198e+20   -6.5644570264799764e+18   -4.0898744109717173e+20   3.4510121629078533e+20   4.5139139047483023e+19   5.8788393639951327e+19   -3.2565606250942864e+20   2.6883058399135462e+20   -8.0807447352207131e+19   3.3591484084275118e+19   1.2565108057599681e+19   -2.3581150903174608e+20   2.9712281947720688e+19   5.8618149941133230e+19   -1.1195263918002990e+20   -1.3950174269961055e+20   -2.5416013575377292e+20   2.5394348965487568e+20   1.4458071595159237e+18   -6.5683010315512463e+19   2.8937844152341001e+20   1.4211621758940707e+20   -2.6550476602805854e+19   1.4561432036776934e+20   1.4455730322444218e+20   6.2561197571530818e+19   -1.0730080206390506e+20   -5.7818115480933564e+19   -1.6287781769231352e+20   -5.4913502828099912e+19   -2.4949594605669220e+19   -1.3593221648947741e+20   -7.6429169509464064e+19   -2.0856593742744315e+20   -3.1861846773298325e+20   -2.5778879665005910e+20   -8.7999616814788084e+19   -1.6646290834718219e+20   -3.7345391156882801e+20   4.8534842829684449e+19   1.2837867735681497e+20   1.3817675660271366e+19   4.0361053646881006e+19   3.6893488147419103e+19   -1.0411990247797539e+20   9.4684317939655213e+19   -3.2052211347138183e+20   -1.8108324570107812e+20   -1.4064298676057978e+20   -1.0027623350453128e+20   -2.7563711406667301e+20   -1.4043936945295555e+20   -3.3032116370956100e+19   -1.6938572220763318e+20   -2.2433254724216252e+20   -7.9504177184418038e+19   -3.1302838350452923e+20   -4.4491760925526039e+20   -3.7221430626508741e+20   -8.2119585071264023e+19   -1.2741263180054089e+20   1.3264563943370574e+19   9.3264254913005928e+19   -7.2960077778759228e+20   -1.9933812444897994e+20   -3.0701267073595651e+20   -4.9277029960298417e+20   1.0004165770221552e+19   1.1433955990407746e+20   -1.1655627281271338e+20   -9.5606531627703337e+19   -3.8270114506951593e+18   1.9747405742666380e+20   -2.4445242015265787e+20   6.6958386056059904e+19   5.7588754407567147e+19   2.1580731518708705e+20   3.4503815525380039e+19   -3.0867934072367278e+20   -9.7421183189992309e+19   -1.3192277554538494e+20   -1.9499556300245244e+20   -1.9362162663005153e+20   -1.9752013590253656e+20   1.9326301047291701e+20   -3.7962484036888193e+20   -3.8445159326471004e+19   1.8891801699080513e+20   3.1842917215335527e+20   2.3593958524590142e+20   2.6840962349272588e+19   7.9045305252687692e+19   -1.4426183084167842e+19   -2.7002117111502861e+20   -2.6472466944057144e+20   -2.8204523061735994e+20   -6.5252914451727398e+20   -2.8393338668404490e+20   -5.0520051949254205e+19   6.2356757787444013e+20   -1.2303022208862726e+20   -4.6066447679099675e+19   -1.0750362957589042e+20   -1.9075924022697532e+20   -3.4706885346481989e+20   -8.4961125583683663e+20   -1.6112655492372762e+20   8.3667751614401833e+18   1.4294181304772942e+20   -1.0193067645076131e+20   -6.6338027383279754e+20   -4.0839487582325316e+20   1.8846327234466441e+20   1.1750332118892302e+20   -8.8208059298378662e+19   -1.1713405202819047e+20   -2.5725509684751860e+20   -2.9899644769276599e+20   1.5752070807585666e+20   2.2006570810478143e+20   3.6237973376725968e+20   3.9647763493420630e+20   -1.2238981489412689e+20   -3.1814801429302320e+20   -1.0777787826405809e+20   2.1382905174995783e+20   5.0704955923293667e+19   -1.8063454860168741e+20   -3.7830348853662404e+20   -2.1002339524340246e+20   3.6894537711233591e+20   4.1924032855505594e+20   3.1494456583984120e+20   1.7201015840179592e+20   -4.4329209841051271e+19   -3.7620475551989258e+18   -1.6108417898907445e+20   -2.2039205976945066e+20   -3.6778225663325150e+20   -1.9484161877128554e+20   -3.5101401235958261e+20   -3.4975924562854779e+20   4.5587493214854264e+20   2.8168832646824909e+20   -1.2876507515449778e+20   -9.4483303522107621e+19   2.0765678341190061e+20   4.5067864644336917e+20   -1.8467839507704945e+20   1.0315941203645782e+20   3.2695434562077507e+18   3.0653228120659775e+20   -1.9530764603899793e+20   -8.4578576979043385e+19   1.3207325376723288e+19   -3.1028326657059095e+20   -1.7131754523103995e+20   2.1965301618310099e+19   3.9642043760507224e+19   9.7764216766344364e+19   -1.7539678495215698e+19   -6.0065836862571192e+19   2.5480053657105862e+20   3.9183378805001093e+19   2.1196728590413840e+20   3.9693566358705727e+20   1.0275300668074400e+20   8.2269265773696369e+19   -2.7902661164007165e+20   -2.7005050767793983e+19   -1.8630331681920496e+20   -5.1008869249911030e+20   -4.1234979527935992e+19   2.5400670077202981e+19   -2.3429077653766337e+20   -7.1808998115044065e+19   2.6730060390065016e+20   4.1377450899419759e+20   -2.2030616218058644e+20   -2.0234255940387471e+20   6.9886596847711937e+19   -3.3680767578958358e+20   2.1973855847004992e+20   -1.6511355077688446e+20   2.6184252518929115e+20   5.5702169906916465e+20   2.0580293155086765e+20   -2.6396719376658784e+19   -6.1588211407499198e+19   -2.2498318765816388e+20   1.4056711266414779e+20   3.4852688363682326e+20   2.4484232456905930e+20   -1.9570240472704998e+20   6.6741519635143639e+18   1.7400637229019018e+20   -2.0734105149009273e+19   5.4433568589280326e+20   -5.9316961390705961e+18   3.2673301321283686e+20   2.1957774258079793e+20   -1.2916970894441452e+20   1.2344502277463643e+20   5.9473000156951183e+19   -3.8973497070893113e+19   2.2282270442377736e+19   -1.9883861141720859e+20   -2.2772438491899930e+20   -1.6745914460298346e+19   -5.2446652981379547e+19   -2.9734112122422948e+19   1.7550826142497201e+20   2.4271665340467062e+20   5.2762717311874046e+20   1.2458025340737995e+20   2.7743021667454471e+20   7.3267417111258456e+19   1.0945715162128533e+20   -3.6467371341724377e+19   -2.2584140367723895e+20   -3.4532024397161497e+20   -2.6507467815254652e+20   -3.7485843214020018e+20   -2.6784072925549752e+19   -1.6195154290756210e+20   4.6033857938676736e+19   1.6104081465282963e+20   5.9592839100992020e+19   1.3206981482990928e+20   3.2823390195789804e+20   -3.2765960069962000e+20   -1.5305972784069765e+20   2.0508372502298473e+20   1.4215517872488068e+20   -5.1267472785804780e+19   2.5164879953157087e+19   1.2024846863111244e+19   1.5379219012330992e+20   3.5723194584781304e+19   -4.4308258263622861e+19   -6.6738806185679698e+18   -8.3234416056364515e+19   -1.2222477857607827e+20   2.4122489822238959e+20   -2.7076011347915325e+20   -1.4021376047062557e+20   1.1650143451103386e+20   -1.3448651737149773e+20   -6.0067608191728312e+19   1.0445090819646741e+20   1.0689997805864324e+20   2.0510147155864556e+19   -1.3261454269423157e+20   -2.2028153340375925e+20   9.7549899313146921e+19   -1.0136428835153782e+20   4.8008457056665461e+19   -8.2993633475793322e+19   -3.6673571306432598e+19   -2.5022892221430363e+20   3.9362151487290009e+20   3.6150769148817342e+20   -2.8260021497996886e+20   -2.9154834793846587e+20   -6.3065268730472387e+18   1.5913122084092766e+20   -1.2112451454790260e+20   7.3594733245396263e+19   -3.5527689319609002e+20   -1.1060708530337835e+20   -1.1916313954841656e+20   -5.8897617352392212e+19   7.2829305937413931e+19   5.7385239731379126e+19   -1.4408701553413790e+20   -1.7148780143690256e+20   -4.6713943511780057e+19   -3.5154153961610202e+20   2.0867654019964256e+20   1.8375761959467686e+20   -2.8292381220293929e+20   -2.2202803704844570e+20   -2.7149294785639458e+20   -1.0862388040858285e+20   7.7558374027663811e+18   -7.8332326801614127e+19   -3.8390413029922144e+20   -4.1688623658831957e+20   -8.8698497510565233e+19   -1.9791541119861988e+20   7.5377131593767518e+19   -6.9387502946641527e+19   8.8496005408731972e+19   4.6288128694744482e+20   -7.0742600466904934e+20   -3.5110904481368113e+20   -2.3393092754043745e+20   -1.2061959145067128e+20   -2.5909997907549241e+20   -7.5864518598130024e+19   -6.0102075302662996e+19   -2.0367231660196610e+20   6.3335964242025972e+19   -1.8816359007699862e+20   1.7890951698097855e+20   9.2422611480960614e+18   -2.0626372938642211e+20   -4.1890900010687909e+20   -3.6667729416615690e+20   -2.5951141163371564e+20   -2.2077325251868774e+20   2.4803007349887812e+20   1.1431460239777045e+20   3.2232464508323951e+19   -5.1103946948725690e+20   -2.9047237747342741e+20   -3.7614095046934192e+19   4.2576016452621763e+19   -1.4320697669255532e+20   -1.0434184118012420e+19   1.3044127580648148e+20   3.3618550417448462e+20   -2.2412818645193467e+20   -2.0571142898116041e+20   -3.6151081548376991e+20   -3.9383233523148810e+20   -1.7478890515157896e+20   -1.5392168694633975e+20   -2.3874499072797557e+20   -1.4689278785935412e+20   -2.2582917110211789e+20   3.7017517433502095e+18   -9.2484708642570502e+19   -1.2362936406086076e+20   1.3614257429662014e+20   2.7349201244339556e+20   5.4907252838878372e