<?xml version="1.0"?>
<VTKFile type="UnstructuredGrid"  version="0.1"  >
<UnstructuredGrid>
<Piece  NumberOfPoints="387" NumberOfCells="708">
<Points>
<DataArray  type="Float64"  NumberOfComponents="3"  format="ascii">0 3 0  0 -3 0  6 -3 0  6 3 0  3 -3 0  6 0 0  3 3 0  0 0 0  3 0 0  0 -1.5 0  1.5 -3 0  1.5 3 0  0 1.5 0  6 -1.5 0  4.5 -3 0  6 1.5 0  4.5 3 0  4.25 -1.25 0  1.75 1.25 0  2.25 -1.5 0  4.5 0.75 0  1.541666666666667 -0.2083333333333333 0  3.219827586206896 1.521551724137931 0  1.125 -1.875 0  4.875 1.875 0  0.8702651515151515 0.631628787878788 0  2.25 2.214285714285714 0  3.316176470588236 -1.904411764705882 0  5.214285714285714 -0.75 0  5.03125 -2.03125 0  0.96875 2.03125 0  4.041666666666667 -0.2083333333333333 0  0.8205128205128206 -0.9134615384615387 0  3.942582294752138 2.189194098250713 0  3.061487638533674 -0.968243819266837 0  2.192708333333333 0.4427083333333334 0  4.157850026972511 -2.182329047049442 0  2.331456616463011 -0.5285296485744057 0  3.654761904761905 0.5654761904761902 0  5.25 1.125 0  2.563673341677096 -2.280663329161452 0  5.126674107142857 0.1283482142857142 0  0.75 -3 0  0 -2.25 0  6 2.25 0  5.25 3 0  0.7680051888903191 -0.1384245958639337 0  1.617229471026718 -1.006949429867069 0  4.218940341429579 1.468686552856807 0  3.75 -3 0  2.25 -3 0  0.75 3 0  5.25 -3 0  6 -0.75 0  0 -0.75 0  0 0.75 0  2.25 3 0  6 -2.25 0  0 2.25 0  3.75 3 0  6 0.75 0  1.787573018358365 -2.279142327213878 0  3.195025188237337 2.273430909158844 0  2.528159645294386 1.151699106559287 0  1.041598427383826 1.322848427383826 0  1.520951704545454 0.4634232954545453 0  1.580357142857143 2.325892857142857 0  4.919642857142857 -1.361607142857143 0  4.54981623521892 -0.6483700862895494 0  2.99317863826574 0.6697091957925523 0  3.450169349029507 -0.4574865881858001 0  3.605016126014028 -1.323102984840902 0  2.745144658907412 1.882241931337371 0  0.4898065586600511 1.092777516238393 0  0.5 -1.875 0  1.217028489597945 -2.469323836800685 0  1.659912685567181 -1.604738056701542 0  5.4375 1.6875 0  5.34375 2.34375 0  4.52741779500503 2.384139265001677 0  3.375 -2.514804579549941 0  0.5446428571428571 -2.455357142857143 0  2.766554087216865 -1.745795909102064 0  4.525516559010988 0.1490283123570637 0  3.87554132162248 -0.8280516069565407 0  4.53622906132958 -1.76963146596888 0  0.4243951612903226 1.875 0  0.554851858345021 2.446861709948876 0  5.575604838709677 -1.875 0  5.445148141654979 -2.446861709948876 0  4.875 -2.575604838709677 0  1.440573466105381 1.721823466105381 0  2.193519495405082 1.631799415080963 0  5.472630128027442 -1.330813078900983 0  4.750126894286386 1.343813447143193 0  5.607142857142857 -0.375 0  2.625 2.607142857142857 0  0.3921763197810531 0.375 0  5.60901753622775 0.3750000000000001 0  1.125 2.613454943235572 0  3.701856738980915 1.163867513386733 0  3.736112850688509 1.696746876851408 0  3.519183195491339 0.06065128742606851 0  3.973620778217027 -1.693401606145563 0  0.8125 -1.444978632478633 0  1.256657745408029 -0.6381828923025001 0  0 -1.125 0  5.019997778514942 0.6475044429701156 0  4.125 3 0  1.285569332703024 0.8955310332120207 0  0 -0.375 0  0.4638922275641027 -0.5625 0  2.056635259780241 -0.07226025978024064 0  2.130475508371123 -1.000827820434028 0  2.677484372338113 -1.267299126394495 0  2.848680878891876 -0.4956836878192376 0  4.937901885089369 -0.3340245904575954 0  4.393563081308854 1.919544166973803 0  4.053859126323572 0.2813938488760716 0  1.181051704329518 0.1167440895674965 0  1.971354166666667 2.607142857142857 0  4.875 3 0  2.519350561152006 0.08093582719875507 0  3.139443301924015 -1.442524927271905 0  6 2.625 0  1.849169256239503 1.945480934753207 0  1.867196483071171 0.7892354369530077 0  1.192506522009051 -1.184888428863342 0  3.375 3 0  3.603234392481833 2.536866305538572 0  3.846752908916648 -2.537707634073423 0  2.014339897513945 -1.886932065281681 0  4.038392037966526 0.8363324773944992 0  4.421242701722609 -2.552534687860327 0  3.715389848650903 -2.108856956172843 0  2.985668138820625 1.127780908772207 0  0.4500794934449803 -1.173696061598557 0  3.366760888116476 0.8891914618875614 0  1.869163043700093 -0.6107175804171328 0  2.175114838273305 -2.53928723780967 0  3.014417665538299 -2.241523065744933 0  2.625 -3 0  2.819968145332426 -2.617202329573456 0  5.625 1.3125 0  5.563263538826679 0.814027077653358 0  5.625 3 0  2.550041671270923 0.7074928970804664 0  4.014583091741168 2.59891853892166 0  0.6440729668673318 1.499523832583132 0  5.219449799568244 -1.660557808485412 0  3.474012636702472 -0.9300738420779746 0  0.8125 -2.142857142857143 0  1.875 -3 0  4.945010515846405 2.554471797033147 0  2.611388969012422 -0.8478354915063726 0  3.223746055611014 0.3371683159691745 0  4.843939757110898 -0.9483610977948225 0  4.66556954816842 -2.220888354477256 0  4.125 -3 0  4.448108395110625 -0.2524000502731018 0  5.63671875 2.05078125 0  2.822484133964224 1.491327727709286 0  3.378213092764193 1.903125093887009 0  5.607142857142858 -0.9231200445788541 0  2.12639693023183 1.100450516019641 0  5.625 -3 0  0.375 3 0  0 2.625 0  6 -2.625 0  0.3931307155906299 -0.01856779822591927 0  0.7651723094668359 0.253768144801553 0  0.8549199714190221 -0.5218333744252657 0  1.421989550604507 -2.133299471886336 0  1.582611957351803 -2.615166692128227 0  4.420331038793115 1.133144382396504 0  0.375 -3 0  0 -2.625 0  5.078156723571596 1.54697017071479 0  1.877250715260938 -1.288801575378032 0  2.409169073010687 -1.916147168931784 0  1.146151077069952 -0.268000681695328 0  1.726784828652036 0.1335728643263411 0  2.745628549924675 0.3838821021397905 0  3.011490900297165 2.613625569196862 0  5.62463365164608 -4.137655439684362e-05 0  1.875 3 0  1.125 3 0  6 0.375 0  2.625 3 0  6 -1.125 0  6 -0.375 0  4.875 -3 0  6 -1.875 0  3.375 -3 0  1.125 -3 0  0 -1.875 0  0 0.375 0  0 1.125 0  0 1.875 0  6 1.125 0  6 1.875 0  4.813017731148975 0.9677363687196439 0  2.807371623148303 2.264962208227767 0  0.3692953377255688 0.7436406761680247 0  5.615625 2.615625 0  0.9395725521479794 0.9812935874921043 0  1.390920759130215 1.238984550166515 0  0.9588795022085095 1.672288500195331 0  0.87712392565124 -2.641031728267331 0  0.3665732993114588 -1.532068934251388 0  1.841944504733106 1.591700334213738 0  4.832970185136452 0.3385359233091246 0  4.169083540479082 -0.5746148619765254 0  5.281697083409333 -0.2046640461936881 0  4.072845380968044 1.784516523483641 0  1.293029195762321 -1.543079049035419 0  4.878733886054284 -1.720697370582964 0  3.609167475697567 -1.687579152754035 0  4.836981942878573 2.222259978217028 0  4.204938267037067 -0.9128589669335569 0  5.183079748175263 -1.111742407358677 0  1.22880920402559 2.273525645756405 0  1.469404041858679 2.654509729682302 0  4.566761045622856 -1.414165869120005 0  4.531680518427715 1.606803989975667 0  1.918929241273175 2.27471131819245 0  3.526908551984126 2.207147627530056 0  1.85683899811842 0.4533569963423589 0  1.173935704088662 0.4636872214645547 0  2.116602160898525 -2.207718541460878 0  4.51821874648995 -1.042568353750147 0  2.721551512787618 -0.1859357475290837 0  5.294921875 2.001953125 0  5.288671874999999 2.670703125 0  2.199940744527116 0.7756512213396931 0  4.090519467638897 1.163401080812838 0  2.298177083333333 2.670581371753247 0  2.484362362207526 -2.687319997637033 0  3.300530569898859 1.207053005217563 0  3.936078051808127 -1.362164062673065 0  5.341218841330105 0.5689885832563615 0  4.226314635599414 0.5638853401248238 0  2.524510956818563 1.635483567726497 0  0.3219546452225031 1.389066019009203 0  3.139061555368706 -0.3133905221155423 0  3.145569907612562 -0.6461828528638952 0  3.701427442033566 -0.2272880199383185 0  1.686782510365738 -1.934662341426927 0  2.427696494631844 1.944064773844184 0  3.901817839425732 1.422433381251312 0  2.356489883772755 -0.2025512972825912 0  4.820757576351118 -0.01647699434507374 0  3.064415631228375 1.809719380809516 0  4.643002705009462 2.69782572459795 0  4.31624250429496 2.728112685900672 0  1.520100694408069 -1.314302747998057 0  3.754559308601717 -0.5375020107416889 0  0.25 -2.0625 0  0.8125 -1.826636904761905 0  4.861738621091127 -0.6367294570749906 0  1.545149590740081 2.015832101819233 0  3.857113324620078 0.04127675193819436 0  0.2479605082936806 -0.9375 0  4.21293081604216 2.352874368135467 0  3.123697687162562 -2.708090473740421 0  3.415275466010259 -2.202892416689829 0  3.601103065320932 -2.727566580522146 0  1.558629964945672 -0.5289921609136927 0  3.324859026263307 -1.198136798699183 0  2.424350759683917 -1.092246517929194 0  2.746461744851735 0.9398108087856579 0  0.8882026075771248 2.364936378889839 0  0.8066140242673685 2.679750706449505 0  4.504454978490482 0.4491616076730165 0  4.26881784709759 -0.009649566552704852 0  1.3125 -2.75919801263958 0  1.120577805361368 -2.179971784090952 0  3.734048623985226 0.8602850349907256 0  3.527828882622877 1.432983527791925 0  1.959527908877504 -1.578124930685265 0  0.7602573574724077 1.220872343399509 0  0.6691217533356228 0.8531987603309893 0  1.877213035764122 -2.564340152892596 0  3.32172153715047 2.685939810104955 0  4.285565286275464 -1.569057178671076 0  4.227521511146333 -1.876903861267543 0  5.34375 1.40625 0  5.71875 1.59375 0  1.56245959534423 0.766197796710638 0  0.2458241530773257 2.4375 0  0.2794123857609179 2.138568368155198 0  5.754175846922674 -2.4375 0  5.720587614239082 -2.138568368155198 0  0.6472458227887359 2.124973059628837 0  5.124241021325378 -2.352544055105642 0  5.189172233440652 -2.675873509996353 0  5.364643151640443 -2.12768524739804 0  2.298896485720138 1.348573610321417 0  0.6008689899200503 -2.745193425346304 0  0.307092513690391 -2.651812055231556 0  0.2683745826107009 -2.363146293324415 0  0.5223214285714285 -2.165178571428571 0  0.3925308914031174 2.699891746740618 0  5.607469108596883 -2.699891746740618 0  2.138365140930822 1.917102089073091 0  1.25507379660067 1.953406658386351 0  4.135759889512124 -2.476847355718572 0  0.5330865684534913 -0.8980875812659357 0  2.548249345531056 -1.538893887888457 0  2.67686064875775
[...]
<CellData  Scalars="f_26-2"> 
<DataArray  type="Float64"  Name="f_26-2"  format="ascii">1.4670948958029469e+43   9.3939474163451107e+43   8.5712994217086466e+43   2.0662660256089160e+44   4.5103448843585655e+43   7.1204567386777305e+43   -3.5221613172114155e+43   2.4204121636897299e+43   -9.0584001193942618e+41   2.1739675541269906e+42   3.7745370209712481e+43   -8.0021160275342833e+43   -3.1342796817426881e+43   -7.2599473546189852e+43   -5.3592953149961770e+41   -1.8311781307805367e+43   -6.5522638634073271e+43   9.4506370062921857e+42   -1.4993272283109105e+43   -4.5687034532251429e+42   5.7791395337869221e+42   -2.5473351514572372e+43   -2.2100475502202099e+43   7.1878659521077453e+42   1.8315613820942260e+43   -7.2934188305044267e+42   1.1731087284369641e+44   1.5875142633536478e+43   2.0514740330198977e+43   -2.3049402917673795e+42   6.8149886011882096e+42   -3.9574969584894893e+43   -9.6671582222108005e+40   -7.2785436596954844e+43   5.3890167716125260e+43   5.0814441420352423e+43   -1.5749486546127188e+42   4.4978659158304637e+42   -5.8108312207954587e+43   1.3642712935146816e+43   2.6576417664510698e+43   -1.3347977332411506e+42   -3.8527033037392393e+43   -4.1606922597242390e+43   -1.2586598724144193e+44   -5.7039404592348959e+43   -5.0377073340215464e+43   -1.5848931514454470e+45   8.6879501967954027e+43   -7.1610110417005238e+43   7.5784905127716866e+43   -1.1679386347148126e+44   6.7998516128571589e+43   1.3462020521494405e+43   5.5924111609619898e+43   4.9382721173158589e+43   -8.9468958395631774e+43   -4.0581967997331361e+43   -2.3158979165045334e+42   -2.7843129911699390e+42   4.0510228193532095e+42   6.3928093853864263e+42   -3.9180289558847900e+42   -1.3723830033031539e+43   2.7082804226002376e+44   -5.0276251160309852e+44   3.6117542906615021e+42   -2.0313761356884448e+44   -1.1333494813008243e+43   2.9581282793746971e+43   -1.4216246247026728e+43   -5.5953912846883497e+43   1.8661657200928441e+43   2.1959158170096605e+43   -1.0062682853282251e+43   -2.8841950615607852e+43   7.2656688718168679e+43   4.3375831270456378e+42   -2.4179524357964311e+43   -4.8609506823274471e+41   -4.9006812318469450e+42   -2.7586712448683771e+42   -5.3773917678767333e+42   1.1445717798834688e+43   9.7640973693014492e+42   1.8772874050308959e+43   -7.2174999123417736e+42   1.5348623037181245e+42   -1.0109049146201333e+43   -1.8767258155640482e+43   4.7342853898167011e+42   -3.6199296313424145e+43   -1.3727117766558113e+43   3.1142896579004333e+42   9.0817964285281977e+42   7.7282399186530624e+42   -1.5464966352884125e+43   -2.2058419021526345e+43   -1.2117990906222365e+45   5.3709736354213849e+43   4.9254822817182182e+43   1.5586815060012683e+44   5.4642734347585182e+43   7.3129703881353946e+43   -2.1791023390807767e+43   -1.1029200545530381e+44   1.9124251691752359e+45   -2.9771895956888797e+43   -4.6525143819292985e+43   2.0947138963883757e+43   3.3611831985486607e+43   -3.3810940666761452e+43   -2.8434108168327666e+43   -9.1655414854593069e+42   -6.9130782778439756e+42   2.1277865651991927e+42   1.3465212001233552e+42   -1.7734412042611650e+43   -4.2611375558056828e+42   3.6443412552211901e+42   1.5240215747615205e+43   -1.4787505009159120e+42   -2.2454570320638680e+43   3.7073921977569367e+42   1.0475274135621743e+42   -1.5306770180535335e+42   -3.0513750996871887e+42   3.1566208668577960e+44   -4.2495183666344735e+41   -5.3166893479064865e+43   -1.0171367926239789e+44   2.4867201566764575e+43   1.9785641098595733e+44   -1.3713877233793592e+43   -1.9619095056478807e+43   -2.3924559133301560e+43   4.3993147754927984e+44   1.3951036386435919e+44   -2.3608147862662231e+43   -3.9010450755529695e+43   -3.3070212398323725e+43   -3.7708854495188322e+43   -2.6646006098038017e+43   -1.0192914195593103e+43   3.2782600201724494e+42   -7.0940884152342704e+41   9.6014506837212565e+43   4.6470544457525387e+43   1.2334038812634058e+42   4.7013929139965191e+43   -4.9052988560031318e+43   -1.2808197134395099e+44   -2.8969951657800429e+43   -4.6842879987308239e+43   9.3446011999587031e+41   -3.6044534753566683e+42   1.3515047198258174e+43   1.5689294011383223e+42   -6.0258238826458281e+44   -9.1793197043083511e+43   -8.8882483624605052e+44   3.0974457474908817e+43   1.6537262245576629e+43   2.2911359011894180e+43   2.5273527464507666e+43   2.1253730315787817e+43   1.8851271200241871e+43   3.2101025943678347e+43   7.1844590945698765e+42   3.7916971679276107e+42   -1.8644308859860598e+43   -2.3740693386520204e+43   -1.1185316264068102e+44   -1.1855715112965806e+44   -2.2826560681596430e+43   -1.2445612485055439e+43   2.7359785185765155e+43   4.5010961463981122e+43   3.1149695779712182e+43   1.5471054125404230e+44   8.9243337646645759e+44   1.5100786444523759e+44   2.3770038190783498e+42   -4.1750193020899866e+42   5.1930933436985177e+42   1.4886453796676337e+43   3.2287595201662076e+43   -8.6841374428046546e+43   -6.5810010109841985e+42   -1.6936600138549863e+42   -1.0035893454792961e+43   -9.4074538661557145e+41   5.4557534466542467e+43   6.4111731466993562e+43   3.8546994741381481e+43   4.9433952170278543e+43   6.3800887050405500e+44   1.1052728470716628e+44   4.4683974150220468e+42   3.9815739859164009e+43   4.2079507768504337e+43   -3.8367998753546865e+43   -4.5373688750093893e+43   -4.9796332135178974e+43   -2.8136701911849283e+43   2.4965329433650440e+42   5.7998105586921572e+42   -1.9905321596089328e+43   -1.3657215663599647e+43   2.3936843805040071e+43   5.0499412186184689e+43   -1.8094589543344752e+43   -1.7499464095329437e+43   2.2464833711574680e+43   3.0651902471569980e+43   -1.1320073837202113e+43   1.9561910672874885e+43   1.4604327809586106e+43   -5.4930004225377657e+43   -3.5348349064596680e+43   -2.8175930449434047e+44   -4.4712835763728102e+44   1.0166867508533335e+45   8.1823934655872548e+44   -1.0274572331321136e+43   1.3116929516450297e+45   1.3326459532574395e+45   -1.3713284833253086e+42   -6.0176001866610759e+42   1.1916809180298645e+45   5.8043387880700917e+44   -1.7145245063942761e+43   4.5206833320080834e+42   2.7025074233890461e+41   2.4046053700900711e+42   1.0724143438127408e+43   1.1755151899871511e+43   1.8099797533572248e+44   -2.8034715800398461e+43   -6.9000263829629591e+44   -1.2674975742478754e+45   -1.4841074219470505e+44   -1.6394020029039360e+44   3.8758635785623209e+43   2.9726846184158628e+43   -1.3796425631010758e+43   1.3132523662219996e+42   -1.3539819672704941e+42   -8.5324495453657633e+42   -1.8480877397304915e+42   6.4210095625861852e+41   -2.0245844663737612e+44   -2.0864904556759524e+43   -2.0647822517122840e+43   -8.0760372552984818e+42   1.0907705187074142e+45   -4.9188861866370880e+42   -1.4139235022315945e+43   -1.6704863626593729e+43   -2.6442729359865379e+43   1.1943575182784646e+43   -1.5554396921713296e+43   -7.5468445334594341e+42   2.5968465570201534e+42   -3.3703866019830127e+43   -8.1255044283136918e+43   -1.3928442913071928e+43   5.9350199844722446e+43   -1.2215191235701100e+43   -1.9748569281031896e+43   -2.4989209494031797e+43   5.6989922004121422e+42   -3.1755743334662766e+44   -1.0075220693207582e+43   1.7636498803424819e+43   1.4759108204814843e+43   -1.0615224046869796e+44   3.1101164022673595e+43   8.8461160405126798e+43   1.2209298167530340e+44   -3.2363706394586114e+44   -2.3854872754447076e+43   -5.0918286076204799e+43   -4.9366258791590329e+43   -2.8735720946387173e+45   -1.2539616984288817e+45   -2.7951585690204634e+45   -1.6536697149649537e+44   -4.0975537471273815e+43   -1.4904133087761088e+44   6.2128980194991801e+43   8.5026481724123245e+43   2.3053533286114401e+43   1.8117952160780095e+43   3.5547113441508801e+43   1.7366983168743397e+43   1.7544463691037806e+43   2.2900452665064363e+43   -3.0355996030652109e+42   -7.1068610971055642e+42   4.8801069313535120e+44   2.2061740023161693e+44   4.9402845482951262e+42   6.0792112237947695e+44   3.8974755239156176e+43   2.4846396728959334e+44   4.4648037910225667e+43   6.0748312041598478e+43   3.1031134495418508e+44   8.3206759018235000e+44   2.4711915362109870e+43   4.7894365863908557e+44   4.7509709383985044e+43   1.2481160159881973e+44   2.4705303184121880e+44   2.1346999827301626e+44   -5.6676101208342902e+43   -3.8413830514318597e+44   2.1447780215781085e+43   3.6770591530273473e+43   -5.7046792576279968e+42   -2.5532211501041902e+44   -1.2413128453670037e+44   -2.3396540400756279e+45   -4.8393534806130684e+44   -5.6265418564704545e+44   -5.3980414979916949e+44   -6.9687124460243449e+43   -1.3828546472836465e+43   -1.4159481050326998e+44   -2.6408799439490411e+43   -4.5871751637695049e+43   4.5445487881526241e+44   1.0755938003958232e+45   1.0488057943920124e+45   5.2539049755625304e+44   -6.9267381817086998e+43   -5.8256535236344509e+43   -1.1729237333106379e+43   -1.0602211491345818e+43   -3.8939817174965414e+44   -1.8220178604019283e+44   1.5638764297080974e+45   7.7766295144566669e+44   9.7991372660678988e+42   3.7941512088524083e+42   1.1813960710606590e+42   1.8087994589860923e+42   2.9156329276824317e+42   2.4548362519718382e+42   -1.3222532357907761e+45   -6.1643074341549188e+44   -7.9745516710639057e+44   -3.8737313263760021e+44   -4.0591848274104099e+42   -5.0666633345430594e+42   -3.3394878402257991e+43   -2.3644523625403427e+43   -1.3107025705940635e+43   -1.5478657181721038e+43   2.1023151763854053e+43   -1.2922423257634826e+43   -3.7596509397875935e+43   -6.4278981428790937e+43   9.9617955958310415e+43   1.3265161364326608e+44   -2.8046547384867090e+42   7.3612510031580686e+41   1.2468335091640433e+43   1.3888978846813835e+43   -1.2872876056840068e+44   -1.3822298964816244e+44   -6.8482579766262440e+42   2.6940305827176519e+42   -1.5713303431204947e+43   -9.5497607785353798e+42   3.5406463551118200e+42   -5.3364767904941003e+42   3.2376811092242026e+44   1.2343053239489110e+44   -3.1942354022537822e+42   -4.1121054105609155e+42   -7.6506278100221945e+43   -8.1105841546493879e+43   -9.1083769195123688e+41   9.2620892492792075e+42   -3.2123449030856890e+43   -1.4449392711537966e+43   1.4378973725375814e+43   1.0321674059300351e+43   4.6400898172968233e+42   1.0022705631444594e+43   4.6557496239535550e+43   -3.3327047607273761e+44   -3.8387424748427654e+42   -9.4229229924621217e+42   1.2535750537502169e+43   7.1455613336610833e+42   -1.2685330566112949e+44   -1.1083763707931669e+44   7.2315900446409887e+44   1.4596684956023506e+45   5.4874440505720795e+42   9.9057145620471978e+41   -5.8210508399241035e+43   -4.6251608082202228e+43   1.5876070066070763e+44   2.7983021762591729e+44   -7.5415738111989076e+44   -5.6371115150938158e+44   -2.8357235859236516e+43   -3.3589246427348712e+43   5.5947984551196713e+42   9.1414891276333993e+42   -2.7612335024558231e+43   -1.1510351419304913e+43   -3.7124604697229903e+43   -4.0942594220302676e+43   -3.8785086624375606e+42   -8.3592680346842787e+42   -2.5545634293544770e+44   -5.6704576818879098e+43   -4.5866605518953358e+42   -6.0255071360095086e+40   7.2658275969770196e+42   4.4909498945492899e+42   -9.8469749233626307e+42   -9.4873126993377369e+42   6.3538612107484665e+43   6.4662379485024616e+43   -9.2705247191175168e+42   -2.2354661622559255e+42   -5.2390446018984496e+43   -4.2759906074918657e+43   1.3125762350994888e+43   1.9552720845631375e+43   -2.8562731472850057e+43   -2.9974325252261093e+43   -1.7948443991549679e+43   -2.0551302112232226e+43   5.2473900438345219e+43   7.7012576137164638e+43   1.0281344466346552e+45   4.3931964131817801e+44   7.1783205384945794e+43   6.7068926691720914e+43   1.7404687565542564e+42   -2.6973692922552065e+41   -1.0407233288242404e+44   -3.9246766588207856e+43   1.7721975723114669e+44   1.7386507704170119e+44   -1.5781715889987406e+43   -1.9032878977265454e+43   3.9005360457435668e+42   3.7444497204916738e+42   -2.2906681837947457e+43   -1.6667321677993674e+43   -7.5449071597473865e+43   -3.3633593957030447e+44   -8.1317452402010761e+43   -9.2510052605273928e+43   -4.2920006671140915e+44   -7.0025928388285045e+43   1.1277954522360563e+43   -6.6089937227935087e+42   -2.0425890844517576e+44   -3.8464928038117470e+44   3.5441450794797552e+43   4.0148471463287317e+43   2.0168658215999708e+43   1.4987239279440446e+43   5.2331171660549565e+43   3.6684069267526747e+43   -1.4218333410026978e+43   -8.7866708849386131e+42   8.8461631113230166e+42   2.2252514402175261e+42   6.1091425615713843e+42   -6.2663304293047931e+42   -3.5620403241668894e+43   -4.2402916185866227e+43   -2.1845243106767071e+43   -2.2846334323117248e+43   -5.2677549712738160e+44   -9.6245721875999202e+43   1.2890722244704379e+44   1.5021945093115179e+44   -3.0675401088243813e+43   -2.8231342537511900e+43   -2.7705349989134082e+43   -3.1918508403538948e+43   5.8506193875640083e+43   6.6444601552397000e+43   5.9915115389873299e+42   4.6714420475482962e+42   3.5324326811917188e+42   -2.3214656689026296e+42   -1.5598619553672020e+43   9.9329168344860400e+42   8.4668456298227913e+44   3.7083495899058359e+44   1.4117930650437970e+42   -1.1627592229364765e+42   -1.1073136337165110e+42   8.3224637118262588e+41   -9.3666096225881287e+43   -7.8539999870848150e+43   5.1614704952982455e+44   9.5257318381605138e+43   8.8402844629182508e+42   1.1242837513136776e+43   -8.6774053482159967e+42   -1.3478475149950947e+43   -1.0052181096667882e+44   -6.3418693106562335e+43   4.1552965741616745e+42   1.6195370353898794e+43   8.3865959628949069e+43   5.7023312443915982e+43   1.8474716515855294e+42   1.7883600824788487e+42   1.6089193078770003e+43   8.3693123910933193e+42   -4.7741864678268347e+42   7.4231443767593589e+42   1.4671287332703027e+43   2.4609590832467131e+43   -1.3533920207926939e+43   -1.0903568734774049e+43   -9.0089911437967339e+44   -3.9909604599732763e+43   -2.2163136793415213e+45   -1.2272996426692153e+45   -1.0417387232065433e+44   -9.3644328698159624e+44   2.2134411959732015e+44   1.7248815641350817e+44   2.0677696580424401e+43   1.3221243719707164e+43   -3.3176500923066564e+43   -5.0431561207631518e+43   -4.1237458843870216e+42   -5.1292798062528707e+42   1.9523392381347315e+42   2.3535114870441512e+42   -6.0407094289777464e+42   1.3028321730912299e+42   4.7556098364726974e+43   2.5106273936581442e+43   3.8745231492342909e+43   3.2681575659812179e+43   2.5755886582556041e+43   2.6842313888343694e+43   1.8902719727881950e+43   2.2558728041850822e+43   -9.0596513097970530e+42   2.0480193284416038e+42   -3.1791422616477672e+43   -2.7654598873864029e+43   -2.2486136056133381e+43   -2.5002189456079884e+43   1.9912725337401966e+43   2.1979479873854376e+43   -2.7059483457891484e+42   -2.8888264744597765e+41   6.8911079216532191e+43   1.6263583602464397e+44   -8.1969887978253672e+43   -2.2671682787220906e+44   -2.4634331181064206e+44   -7.9999239872280805e+43   1.7874623447490274e+44   3.8972288602196582e+43   2.7930710895977737e+43   6.9678587941471701e+44   9.5583895597587503e+43   1.1477217530407691e+44   2.4790608432988220e+42   1.5231486139577558e+42   -2.2494393670356652e+42   -5.3334898437774265e+41   -4.4475919488918363e+42   -5.7874521959310606e+41   -5.7295722498334779e+43   -5.3011846618960979e+43   9.1274854893839135e+42   1.4432280622794300e+42   3.8502003755764705e+42   6.6135467375388012e+42   -1.8091773962323022e+43   -1.4831415724187703e+43   4.8129110697625893e+43   2.2405116185826192e+43   2.0843953051713084e+41   2.2265516218018774e+42   5.6716946343598930e+42   6.5200709297576727e+42   -4.7294516636615655e+43   -5.3100803546062955e+43   5.3885327059744390e+43   5.5352190637685593e+43   -2.1289436149213497e+42   7.2052778593744390e+41   -3.3220039582640457e+44   -1.3235461534959798e+44   6.2852060611641915e+43   6.1578126614124268e+43   8.5501858321714716e+42   1.4974788334496988e+43   4.0862720182091489e+44   2.1128627314615059e+44   -1.7090670766885831e+44   -5.1258499450862488e+44   -2.6246422248238135e+43   -2.3627755358748335e+43   2.5466578511610521e+43   3.0668102995185159e+43   -1.0608536269806939e+44   -1.2222350701048266e+44   -9.0428187691207215e+43   -9.3140135340194526e+43   -5.9196112068650754e+41   -2.5078548136332311e+42   1.0531145928946938e+44   2.2533810121515552e+44   -6.5459543224489623e+42   2.8910252031367694e+42   -2.5179564586381705e+44   -8.1290696601752931e+43   -1.1843142336001345e+42   1.1402437678637096e+43   1.1240642361901166e+44   5.9393172310129657e+43   3.0719420154355805e+43   3.0715163396799363e+43   -1.8672368239383812e+44   -3.6499070665756024e+44   -1.1036798079278451e+44   -1.1700399166861398e+44   -1.4847084111090221e+44   -4.5761236812071114e+43   1.5678139686918064e+44   4.8978948718301952e+44   -4.9896084431153042e+42   -8.1580254033315875e+42   3.6558838621469608e+43   1.5176719654777921e+44   7.6624245283817707e+43   6.8781520036138298e+43   1.2131839771613139e+44   1.1564886887353043e+44   1.3537029739193703e+44   1.5305095906239886e+44   1.1729071865079405e+44   3.5469252117138847e+44   -5.9844720965413059e+43   -1.5187713012648118e+44   -2.6321326150417882e+44   -6.0378632301406042e+44   1.4781426897696570e+44   9.0044707813803226e+43   2.9177087565475283e+44   1.1641683076855261e+44   4.7325800865619275e+45   4.6978991381488170e+45   -3.8918732215934141e+43   -3.9684863320071132e+43   -3.6762537928964266e+43   -3.0587116680687704e+43   2.2120145737477674e+43   2.0950901763149134e+43   6.8664069611443151e+44   1.8782080817376691e+44   -9.1512151774531052e+43   -7.4103486147870832e+43   -7.8890396870743194e+41   -2.0836771782364688e+42   -1.6516993853313133e+43   1.1801702039900879e+42   -2.2066163788496307e+42   -6.8620447191340909e+42   -2.8638777947557214e+44   -1.1630780331557878e+44   2.2230047553690569e+44   1.6767061675317489e+44   -1.6305235604025711e+44   -1.5574077656329011e+44   1.4018329284944235e+43   1.0102349280613697e+43   2.1797437712527889e+43   1.7308087372560856e+43   8.9683139815510801e+41   2.1749943931018671e+42   1.2743428969316017e+43   1.0467564806501388e+43   5.7385044145581335e+43   6.1333772628661200e+43   4.5814659074002037e+43   4.9010102455482662e+43   4.5072585959313985e+43   4.3019488217591694e+43   3.5261368563231581e+43   4.0766832628653725e+43   -6.7353569549832344e+42   -6.4065762307600750e+42   -8.1573113554442857e+42   7.7832658806583485e+41   </DataArray> 
</CellData> 
</Piece>
</UnstructuredGrid>
</VTKFile>