<?xml version="1.0"?>
<VTKFile type="UnstructuredGrid"  version="0.1"  >
<UnstructuredGrid>
<Piece  NumberOfPoints="2534" NumberOfCells="4892">
<Points>
<DataArray  type="Float64"  NumberOfComponents="3"  format="ascii">0 3 0  0 -3 0  6 -3 0  6 3 0  3 -3 0  6 0 0  3 3 0  0 0 0  3 0 0  0 -1.5 0  1.5 -3 0  1.5 3 0  0 1.5 0  6 -1.5 0  4.5 -3 0  6 1.5 0  4.5 3 0  4.25 -1.25 0  1.75 1.25 0  2.25 -1.5 0  4.5 0.75 0  1.541666666666667 -0.2083333333333333 0  3.219827586206896 1.521551724137931 0  1.125 -1.875 0  4.875 1.875 0  0.8702651515151515 0.631628787878788 0  2.25 2.214285714285714 0  3.316176470588236 -1.904411764705882 0  5.214285714285714 -0.75 0  5.03125 -2.03125 0  0.96875 2.03125 0  4.041666666666667 -0.2083333333333333 0  0.8205128205128206 -0.9134615384615387 0  3.942582294752138 2.189194098250713 0  3.061487638533674 -0.968243819266837 0  2.192708333333333 0.4427083333333334 0  4.157850026972511 -2.182329047049442 0  2.331456616463011 -0.5285296485744057 0  3.654761904761905 0.5654761904761902 0  5.25 1.125 0  2.563673341677096 -2.280663329161452 0  5.126674107142857 0.1283482142857142 0  0.75 -3 0  0 -2.25 0  6 2.25 0  5.25 3 0  0.7680051888903191 -0.1384245958639337 0  1.617229471026718 -1.006949429867069 0  4.218940341429579 1.468686552856807 0  3.75 -3 0  2.25 -3 0  0.75 3 0  5.25 -3 0  6 -0.75 0  0 -0.75 0  0 0.75 0  2.25 3 0  6 -2.25 0  0 2.25 0  3.75 3 0  6 0.75 0  1.787573018358365 -2.279142327213878 0  3.195025188237337 2.273430909158844 0  2.528159645294386 1.151699106559287 0  1.041598427383826 1.322848427383826 0  1.520951704545454 0.4634232954545453 0  1.580357142857143 2.325892857142857 0  4.919642857142857 -1.361607142857143 0  4.54981623521892 -0.6483700862895494 0  2.99317863826574 0.6697091957925523 0  3.450169349029507 -0.4574865881858001 0  3.605016126014028 -1.323102984840902 0  2.745144658907412 1.882241931337371 0  0.4898065586600511 1.092777516238393 0  0.5 -1.875 0  1.217028489597945 -2.469323836800685 0  1.659912685567181 -1.604738056701542 0  5.4375 1.6875 0  5.34375 2.34375 0  4.52741779500503 2.384139265001677 0  3.375 -2.514804579549941 0  0.5446428571428571 -2.455357142857143 0  2.766554087216865 -1.745795909102064 0  4.525516559010988 0.1490283123570637 0  3.87554132162248 -0.8280516069565407 0  4.53622906132958 -1.76963146596888 0  0.4243951612903226 1.875 0  0.554851858345021 2.446861709948876 0  5.575604838709677 -1.875 0  5.445148141654979 -2.446861709948876 0  4.875 -2.575604838709677 0  1.440573466105381 1.721823466105381 0  2.193519495405082 1.631799415080963 0  5.472630128027442 -1.330813078900983 0  4.750126894286386 1.343813447143193 0  5.607142857142857 -0.375 0  2.625 2.607142857142857 0  0.3921763197810531 0.375 0  5.60901753622775 0.3750000000000001 0  1.125 2.613454943235572 0  3.701856738980915 1.163867513386733 0  3.736112850688509 1.696746876851408 0  3.519183195491339 0.06065128742606851 0  3.973620778217027 -1.693401606145563 0  0.8125 -1.444978632478633 0  1.256657745408029 -0.6381828923025001 0  0 -1.125 0  5.019997778514942 0.6475044429701156 0  4.125 3 0  1.285569332703024 0.8955310332120207 0  0 -0.375 0  0.4638922275641027 -0.5625 0  2.056635259780241 -0.07226025978024064 0  2.130475508371123 -1.000827820434028 0  2.677484372338113 -1.267299126394495 0  2.848680878891876 -0.4956836878192376 0  4.937901885089369 -0.3340245904575954 0  4.393563081308854 1.919544166973803 0  4.053859126323572 0.2813938488760716 0  1.181051704329518 0.1167440895674965 0  1.971354166666667 2.607142857142857 0  4.875 3 0  2.519350561152006 0.08093582719875507 0  3.139443301924015 -1.442524927271905 0  6 2.625 0  1.849169256239503 1.945480934753207 0  1.867196483071171 0.7892354369530077 0  1.192506522009051 -1.184888428863342 0  3.375 3 0  3.603234392481833 2.536866305538572 0  3.846752908916648 -2.537707634073423 0  2.014339897513945 -1.886932065281681 0  4.038392037966526 0.8363324773944992 0  4.421242701722609 -2.552534687860327 0  3.715389848650903 -2.108856956172843 0  2.985668138820625 1.127780908772207 0  0.4500794934449803 -1.173696061598557 0  3.366760888116476 0.8891914618875614 0  1.869163043700093 -0.6107175804171328 0  2.175114838273305 -2.53928723780967 0  3.014417665538299 -2.241523065744933 0  2.625 -3 0  2.819968145332426 -2.617202329573456 0  5.625 1.3125 0  5.563263538826679 0.814027077653358 0  5.625 3 0  2.550041671270923 0.7074928970804664 0  4.014583091741168 2.59891853892166 0  0.6440729668673318 1.499523832583132 0  5.219449799568244 -1.660557808485412 0  3.474012636702472 -0.9300738420779746 0  0.8125 -2.142857142857143 0  1.875 -3 0  4.945010515846405 2.554471797033147 0  2.611388969012422 -0.8478354915063726 0  3.223746055611014 0.3371683159691745 0  4.843939757110898 -0.9483610977948225 0  4.66556954816842 -2.220888354477256 0  4.125 -3 0  4.448108395110625 -0.2524000502731018 0  5.63671875 2.05078125 0  2.822484133964224 1.491327727709286 0  3.378213092764193 1.903125093887009 0  5.607142857142858 -0.9231200445788541 0  2.12639693023183 1.100450516019641 0  5.625 -3 0  0.375 3 0  0 2.625 0  6 -2.625 0  0.3931307155906299 -0.01856779822591927 0  0.8549199714190221 -0.5218333744252657 0  0.7651723094668359 0.253768144801553 0  1.421989550604507 -2.133299471886336 0  1.582611957351803 -2.615166692128227 0  4.420331038793115 1.133144382396504 0  0.375 -3 0  0 -2.625 0  5.078156723571596 1.54697017071479 0  1.877250715260938 -1.288801575378032 0  2.409169073010687 -1.916147168931784 0  1.146151077069952 -0.268000681695328 0  1.726784828652036 0.1335728643263411 0  2.745628549924675 0.3838821021397905 0  3.011490900297165 2.613625569196862 0  5.62463365164608 -4.137655439684362e-05 0  1.875 3 0  1.125 3 0  6 0.375 0  2.625 3 0  6 -1.125 0  6 -0.375 0  4.875 -3 0  6 -1.875 0  3.375 -3 0  1.125 -3 0  0 -1.875 0  0 0.375 0  0 1.125 0  0 1.875 0  6 1.125 0  6 1.875 0  4.813017731148975 0.9677363687196439 0  2.807371623148303 2.264962208227767 0  0.3692953377255688 0.7436406761680247 0  5.615625 2.615625 0  0.9395725521479794 0.9812935874921043 0  1.390920759130215 1.238984550166515 0  0.9588795022085095 1.672288500195331 0  0.87712392565124 -2.641031728267331 0  0.3665732993114588 -1.532068934251388 0  1.841944504733106 1.591700334213738 0  4.832970185136452 0.3385359233091246 0  4.169083540479082 -0.5746148619765254 0  5.281697083409333 -0.2046640461936881 0  4.072845380968044 1.784516523483641 0  1.293029195762321 -1.543079049035419 0  4.878733886054284 -1.720697370582964 0  3.609167475697567 -1.687579152754035 0  4.836981942878573 2.222259978217028 0  4.204938267037067 -0.9128589669335569 0  5.183079748175263 -1.111742407358677 0  1.469404041858679 2.654509729682302 0  1.22880920402559 2.273525645756405 0  4.566761045622856 -1.414165869120005 0  4.531680518427715 1.606803989975667 0  1.918929241273175 2.27471131819245 0  3.590183783343969 2.184680610175416 0  1.85683899811842 0.4533569963423589 0  1.173935704088662 0.4636872214645547 0  2.116602160898525 -2.207718541460878 0  4.51821874648995 -1.042568353750147 0  2.721551512787618 -0.1859357475290837 0  5.294921875 2.001953125 0  5.288671874999999 2.670703125 0  2.199940744527116 0.7756512213396931 0  4.090519467638897 1.163401080812838 0  2.298177083333333 2.670581371753247 0  2.484362362207526 -2.687319997637033 0  3.300530569898859 1.207053005217563 0  3.936078051808127 -1.362164062673065 0  5.341218841330105 0.5689885832563615 0  4.226314635599414 0.5638853401248238 0  2.524510956818563 1.635483567726497 0  0.3219546452225031 1.389066019009203 0  3.139061555368706 -0.3133905221155423 0  3.145569907612562 -0.6461828528638952 0  3.701427442033566 -0.2272880199383185 0  1.686782510365738 -1.934662341426927 0  2.427696494631844 1.944064773844184 0  3.901817839425732 1.422433381251312 0  2.356489883772755 -0.2025512972825912 0  4.820757576351118 -0.01647699434507374 0  3.064415631228375 1.809719380809516 0  4.643002705009462 2.69782572459795 0  4.31624250429496 2.728112685900672 0  1.520100694408069 -1.314302747998057 0  3.754559308601717 -0.5375020107416889 0  0.25 -2.0625 0  0.8125 -1.826636904761905 0  4.861738621091127 -0.6367294570749906 0  1.545149590740081 2.015832101819233 0  3.857113324620078 0.04127675193819436 0  0.3162874907704933 -0.864918315983958 0  4.21293081604216 2.352874368135467 0  3.123697687162562 -2.708090473740421 0  3.415275466010259 -2.202892416689829 0  3.601103065320932 -2.727566580522146 0  1.558629964945672 -0.5289921609136927 0  3.324859026263307 -1.198136798699183 0  2.424350759683917 -1.092246517929194 0  2.789248065239812 0.8954629970670158 0  0.8882026075771248 2.364936378889839 0  0.8066140242673685 2.679750706449505 0  4.504454978490482 0.4491616076730165 0  4.26881784709759 -0.009649566552704852 0  1.313479173834523 -2.758675889510418 0  1.120577805361368 -2.179971784090952 0  3.734048623985226 0.8602850349907256 0  3.527828882622877 1.432983527791925 0  1.959527908877504 -1.578124930685265 0  0.7602573574724077 1.220872343399509 0  0.6691217533356228 0.8531987603309893 0  1.877213035764122 -2.564340152892596 0  3.304349402914068 2.552016594979913 0  4.285565286275464 -1.569057178671076 0  4.227521511146333 -1.876903861267543 0  5.34375 1.40625 0  5.71875 1.59375 0  1.56245959534423 0.766197796710638 0  0.2458241530773257 2.4375 0  0.2794123857609179 2.138568368155198 0  5.754175846922674 -2.4375 0  5.720587614239082 -2.138568368155198 0  0.6472458227887359 2.124973059628837 0  5.124241021325378 -2.352544055105642 0  5.189172233440652 -2.675873509996353 0  5.364643151640443 -2.12768524739804 0  2.298896485720138 1.348573610321417 0  0.6008689899200503 -2.745193425346304 0  0.307092513690391 -2.651812055231556 0  0.2683745826107009 -2.363146293324415 0  0.5223214285714285 -2.165178571428571 0  0.5169611136983336 2.740349995819724 0  5.607469108596883 -2.699891746740618 0  2.138439274270545 1.947386893596098 0  1.25507379660067 1.953406658386351 0  4.135759889512124 -2.476847355718572 0  2.548249345531056 -1.538893887888457 0  2.771010284190282 -2.05339728351
[...]
<CellData  Scalars="f_26-2"> 
<DataArray  type="Float64"  Name="f_26-2"  format="ascii">-2.9600011620933875e+27   -3.6690057793393651e+27   -5.4545127158889220e+27   -4.7325181959510697e+27   -5.2205806382116170e+27   -9.5846723894987543e+27   -3.4423847222456381e+27   -4.4575318982159478e+26   -3.7346797274372636e+26   -2.9369076314277098e+27   -2.5721866368852877e+27   -5.1390025526333834e+27   -1.9035113521348461e+27   -6.2688658333744086e+27   -5.4051448586397801e+26   -3.8861209381157520e+27   -5.2105989906288799e+27   -1.2018769069704705e+26   -3.8326979203148552e+27   -2.1821029015220659e+27   -6.5767006308493076e+27   -1.5453999004031350e+27   -4.1749725964646701e+27   -2.1717720704017621e+27   -2.9833306334982352e+27   -3.8521873650312946e+27   -6.9222821752019572e+27   -2.4131154145155890e+27   -2.3689942146556772e+27   -3.5730547051811510e+27   -1.7277246865271146e+27   -1.8123486475693098e+27   -3.0504926389936115e+27   -2.8920828830630273e+27   -3.1562481616985789e+27   -3.5335056768462681e+27   -4.3669795460968394e+27   8.5228977071134172e+26   -5.4468669908010280e+27   -3.7624700352867533e+27   -1.4602529944935943e+27   -3.3728745902775732e+27   -2.4427362182815111e+27   1.1606992282372101e+27   -1.2359851932930023e+28   -5.7856850338991196e+27   -7.3448540610888682e+27   -1.9215439749627996e+27   -4.6826230351495917e+27   6.5178701382716358e+25   -5.0743568438333697e+27   -3.5777972002219967e+27   -1.8372853486607444e+27   -4.0286827303429092e+27   -3.2561938629805797e+27   -3.5040905231375768e+27   -5.4249425344622956e+27   -4.0274753514759005e+27   -5.3296012485509283e+26   -5.2813196924894221e+27   -2.2563975779759132e+27   -3.4706370707604564e+27   -5.2996548495037654e+27   -3.1635602637897842e+27   -1.0256056343768945e+27   -3.8495959575837848e+27   -5.5223278935112441e+27   -7.5309441842296073e+26   -1.5449676506785408e+27   -4.0822366014474911e+27   -2.1605856700717417e+27   -1.7692126371125945e+26   -9.8139700955068790e+26   -3.2528150418283195e+27   -2.7136399411317500e+27   -4.0110726259848812e+26   -1.7649248893058688e+27   -3.3636786649146500e+27   -6.1551932149008401e+27   -9.7762879460869858e+26   -1.9715808697129789e+27   -2.8552150440313386e+27   -4.0178525239583269e+27   -6.4723841202870994e+27   -2.3973739024276272e+27   -3.7501312424758654e+27   -1.2559936650881719e+27   -3.1165113341011966e+27   -3.0496228560985595e+27   -3.3012711797497260e+27   -3.8484550485336659e+27   -3.6360609038482830e+27   -6.7027505783108645e+27   -8.0062057369355690e+26   6.6194228986022906e+26   -6.3482656308594713e+27   -2.8766409499552525e+26   -2.5764365979473886e+27   -2.8752387873088012e+27   -1.9736442939171268e+27   -1.8954495405985769e+27   -6.7888205492881194e+26   -2.0404579065594641e+27   -1.5946342958010259e+27   -3.5040190212285154e+27   -5.9988712913717548e+27   -4.9415825361498481e+27   -2.5545477120353980e+27   -5.1111456822479269e+26   -2.2298651248734684e+27   -2.4182798903269525e+27   -1.5747229822380000e+27   -1.7109486909584220e+27   -2.6259878442774741e+27   -3.0414487984284334e+27   -5.4938638525875254e+27   -8.3111956493048970e+27   -1.5681888396508495e+27   -1.8423094294744885e+27   -7.7189538318215607e+27   -4.7777436309823249e+26   -4.4263904021562451e+27   -4.2758493398050928e+27   -1.2854746119679081e+27   -3.4426304752898260e+27   -1.7662212951255432e+27   -1.0413414760446027e+28   -3.2193644403038917e+27   -7.5233787836928916e+27   -1.7185169054087884e+27   -2.6767208413146636e+27   -3.5683456533546267e+27   -3.4024867156235454e+27   -1.0078945594644477e+27   -2.8278822654617158e+26   -1.6461556006804877e+27   -3.8425904903294190e+27   -8.1299917718203196e+27   -1.0931748515238219e+27   -4.5403768219797594e+27   -2.3247445000220274e+27   -2.1552448173986532e+27   -5.9457089245548245e+27   -6.2745727110256034e+27   -7.5825122860968402e+26   -1.8311869724842954e+28   -4.1094764381171388e+26   -4.6917130667379545e+27   -2.9902722105513303e+27   -9.9527816941171191e+26   -2.2082709211695015e+27   -2.7619177835134108e+27   -3.0269400785771973e+27   -4.0247255395308768e+27   -3.5268391628370493e+27   -2.3473379011906698e+27   -3.8553755318547776e+27   3.9202875374754503e+26   -6.7275872959509687e+27   -1.4834709037126817e+27   -6.2866733249697797e+27   -2.7382401767000398e+27   -3.4156841658601376e+27   -6.0172331029710635e+27   -1.6401676370512678e+27   -6.0016317031329811e+27   -2.8899247236931044e+27   -5.0350804881340118e+27   -2.7973363052876575e+27   -2.8006453259251404e+27   -7.6146430761446843e+26   -1.1629441128683841e+27   -3.5559431811789232e+27   -9.8869282634144124e+26   -2.5391605979748144e+27   -8.7684707191753956e+27   -3.0564806500368849e+27   -2.2445222432022151e+27   -3.9249705858840456e+27   -1.3725471258427555e+27   -1.7999880585328148e+27   -5.1006350811484739e+26   -1.3550892922951991e+27   -2.2318185519481544e+27   -8.1627707240269386e+27   -7.2344531452498555e+27   -4.2710055656913610e+27   -3.7698272695653034e+27   2.9510677841055614e+26   -2.2671001774554844e+27   -1.0289644087963272e+27   -3.9107625638400022e+27   -7.0089418129372528e+26   -3.1259619460136318e+27   -6.0640336183664812e+26   -5.8502830157103005e+27   -4.7870568623141572e+27   -3.9898597194787853e+27   -1.3444870144126049e+27   -1.7644232608665679e+27   -3.4323795222819378e+26   -3.7705943086149671e+27   -4.5115229262929406e+27   -3.1877150171034708e+27   -4.4241410248426224e+27   -2.4829053931631019e+27   -9.9749256657684881e+26   -6.6316104538897935e+27   -2.8520608292440179e+27   -4.1950807145115161e+27   4.4063447802133434e+26   -1.7731311674800256e+27   -3.8940447026437567e+27   -5.5444664979267781e+26   -7.2536693816043389e+27   -4.0458534224552246e+27   -5.6577044595663889e+27   -2.2286478289449115e+27   -1.7583830058251418e+27   -7.7087175803437831e+27   -1.3940591904598926e+27   -4.2000511981347149e+27   -6.9775283112060598e+27   -3.2159126327248363e+27   -4.4278900696726349e+27   -4.4340681307502687e+27   -5.9220443725511344e+26   -1.5659763820684983e+27   9.4016519056970160e+26   -2.3680183968558023e+27   6.4827654424767841e+25   -6.4860663376721078e+26   -1.7354835543633302e+27   -2.1260587214920018e+27   -5.2922629814461420e+27   -5.1698454276507032e+27   -3.6252257252126521e+27   -2.1163536462905887e+27   -1.3468014152770052e+27   -1.3391520520040059e+27   -7.0828152505822690e+26   -3.2782988966484668e+27   -4.7832459364958627e+27   -1.5820726316559868e+27   -6.0024502899901994e+27   -2.1639960451116349e+27   -6.1747017090717780e+27   -2.0061881846235578e+27   -1.0977470226749495e+27   4.8027462209555323e+26   -1.0186573351463527e+27   -1.1152291887397319e+27   -4.0604278540724545e+27   -2.8308193816943319e+27   -1.7766791663738674e+27   -1.2993586705325274e+27   -1.6387942238975927e+27   -2.1965916065938853e+27   7.3631572089426064e+26   -2.4915814635357280e+27   -1.4525522437628384e+27   -6.3310313738548765e+27   -2.1875670672700985e+27   -3.2413494763331771e+27   -2.6285544629065706e+27   -3.9479706642127995e+27   -1.4090178631797370e+27   -2.3516918920105797e+27   -5.0998437894803476e+27   -2.2087180010327427e+26   -3.1139745602389349e+27   -4.8430752714610504e+27   -5.8312403680836483e+27   -4.9716341569723467e+27   -2.4817773249706413e+26   -1.0013819050623169e+27   -4.9852507739510838e+26   -4.0696021176498159e+27   -2.3269159641548576e+27   -1.0856987615466979e+27   -2.9989509961574313e+27   -5.7388417835033814e+26   -4.3627401447244572e+27   -2.3075355003936410e+27   -1.2526599177893798e+27   -9.5110757182400599e+26   -3.3636140593555786e+27   -3.3191154101679653e+27   -2.6350791608833424e+27   2.8316428176141872e+26   -3.7173124234889294e+27   -4.0774789075640364e+27   4.0222265998628067e+25   -1.3488810342447933e+27   -1.7030816037922808e+27   -3.0505808571828033e+27   -3.0226979165315840e+27   -6.8449322584266091e+26   -3.5344409814149602e+27   -9.7555069390459662e+27   -5.0773828647345856e+27   -2.8762461371652402e+27   -3.2561297632874085e+27   -2.0400133486688685e+27   -1.0581361848830224e+27   -1.4567749315623025e+27   -6.2616276381699207e+27   -6.5332341570423112e+26   -2.3731989932555841e+27   -1.5859239818996349e+27   -2.0000347295675576e+27   -2.4422054086301925e+27   -4.7877680768017139e+27   -2.3467091380504027e+27   -2.9851438294322168e+27   -2.1362364494537701e+27   -2.7319321101752709e+27   -3.3488204828181699e+27   -2.1337176761358194e+27   -5.1000109521990162e+27   -5.3968645984671042e+27   -1.6336272332829613e+27   -2.8136690349343599e+27   -4.7130774046566797e+27   -1.9931203443018183e+27   -2.7605606005861273e+27   -2.8488252080085545e+27   -4.2635675304422805e+27   -3.9504157068075767e+27   2.8831986912681868e+26   -3.9430502141990689e+27   -2.6914083515403005e+27   -4.0564005546150383e+27   -4.8326182667170305e+27   -2.7955314505978730e+27   -4.3374311689120814e+27   -1.3750621144226663e+27   -1.1596501085975289e+27   -2.4649892722090188e+27   -3.5788904727470375e+27   -9.6772065504831677e+26   -1.8848635370499819e+27   -1.6864901507793228e+27   -1.5753312859269657e+27   -1.3535356012449954e+27   -3.7436467642285100e+27   -1.7850006710625528e+27   -1.1011372443747070e+27   -3.5433216462189648e+27   -1.8126948665595837e+27   -1.8043594616381122e+27   -2.0330176711217202e+27   1.8471350355906603e+27   -4.7188656804979636e+27   -5.3373320203300155e+27   -1.4442313835742530e+27   -2.2313232772741036e+27   -1.3967616610996923e+27   -8.5719017132842139e+26   -2.1196640304852670e+27   -1.4181812394660161e+27   -7.0022394069161041e+27   4.3207009871567277e+25   -2.9162095657565220e+27   -1.2980372333084818e+27   -3.0800762603276977e+27   -5.4592553712853852e+27   -6.4904024672566725e+27   -2.9253101742631694e+27   -6.2389776961664804e+27   -1.7758937443510988e+27   -4.8790366774343326e+27   -1.3406021262863727e+27   -2.6311571436006787e+27   -1.5716365652957622e+27   -2.1634393490768704e+27   -3.4422178901693470e+27   -1.7706981222492012e+27   -4.8773748721933584e+27   -2.3460539497009713e+27   -1.1477799341407002e+27   -9.1742136255346514e+26   -2.5604869078507109e+27   -7.8714699905156853e+26   -2.7433961442881487e+27   9.8032954492226020e+26   -3.3163592891421418e+27   -2.4926210830880193e+27   1.0658121733541424e+27   -3.4731877879245424e+27   -1.3961566084551351e+27   -2.2748942394027310e+27   -2.5029715368375556e+27   -4.0767694470501278e+27   -2.6122098404937252e+27   -1.9418705449834401e+27   7.6836507774494093e+26   -7.2699365261800528e+27   -3.6133913175853592e+27   -3.2347361265625506e+27   -3.2698193127946743e+27   -1.5112728125912985e+27   -6.0856491325641406e+26   -1.8649002987672268e+27   -2.9340372169455628e+27   -6.9857925912992171e+27   -3.0881279199226909e+27   -1.0897464747102892e+28   -2.9028184709228280e+27   -5.2824037610086009e+27   5.0235400293115393e+26   -2.8016265955696521e+27   -2.7814889263083729e+27   -5.3720646372726848e+26   -1.1736134159836867e+27   -3.9558977378244158e+27   -5.3502343274204319e+27   -7.6037948314874264e+26   -1.0476639960913966e+27   -1.7476065030437168e+27   -2.3821077530480641e+27   -4.2909403773705742e+27   -2.0423505095736257e+27   -6.6992008996559876e+27   -1.3603441325464244e+27   -1.6405894762457737e+27   -2.5102127050602609e+27   -6.9026427731521618e+26   6.5203904313365083e+26   -3.1866324371654072e+27   -2.4832105957230865e+27   -3.0396192607802978e+27   -1.7271480489132960e+27   -2.2464980313032175e+27   -2.1122627984825804e+26   -4.7646651495094964e+27   -3.0875814811289279e+26   -9.3410631086795288e+26   -2.0082334159333268e+27   1.1847340885074904e+25   -4.6175655373345943e+27   -4.0779238593471387e+27   -1.7093331831084136e+27   -4.9879654461984091e+27   -5.4581889936734888e+27   -3.5921139544027587e+27   -1.1657268483672802e+27   -2.9554143717569859e+27   -2.4721721506377222e+27   -3.1063555247689701e+27   -1.3513675520769690e+27   -5.5595849735796226e+27   -4.8812049257067012e+27   -3.7830780300280624e+27   -3.2490661515297823e+27   -1.9331936722712091e+26   -5.0522115425492666e+27   -2.8095616732988024e+27   -3.4524647413478064e+27   -2.9244702974075957e+27   -5.8174949930750909e+27   -1.6495679504527059e+27   -1.7850622670220892e+27   -5.7262024181701282e+26   5.0639659740513831e+26   -5.0256974533713457e+27   -3.0881174845977165e+27   -5.1918920038907352e+27   -1.0173085082299629e+28   -4.0173245166569403e+27   -2.5311405029141627e+27   -1.7326425645529145e+27   -8.0543734307726410e+26   -2.8577635493071491e+27   -5.2718288835670738e+27   -1.7373306467446484e+27   -3.5727289978490225e+27   -2.4070354490839228e+27   -2.8208876260762176e+27   -1.6091008469824741e+27   -6.0513673037226440e+27   -3.5092543342511956e+27   -3.5266248268726005e+27   -2.1890637851215178e+27   -3.1172055369158070e+27   -8.9700800091712484e+27   -3.6070576608160643e+27   -3.2374654333196935e+27   -2.2536314588114083e+27   -2.1348057809571645e+27   -2.3452398318566321e+27   -1.0732043193258720e+27   -1.6729493735852651e+27   -6.9506049343152329e+26   -1.2014991395586681e+27   -2.2085595928527908e+27   -4.7816194064021433e+27   3.7291172448088306e+26   3.8087638579934237e+27   -2.6802209633341800e+27   -5.0107770486755867e+26   -2.6722114587470854e+27   -2.1320817439642571e+27   -1.5121094367749820e+27   -3.9265489027387703e+27   -3.6420671297269372e+27   -6.4150972258265243e+27   -9.2605272552963555e+26   -2.0748082478410813e+27   -2.2339986162610431e+27   -8.4451022837013739e+25   5.6655159426647517e+26   -4.9423097666581894e+27   -4.5397024281828019e+26   -1.5694982815161847e+27   -4.7315197937273515e+27   -5.5405927613521625e+27   -4.5716320803805244e+27   -1.7445415148257004e+26   -7.9911456329905444e+27   -2.5340488674700872e+27   -6.2288897420726701e+27   -1.6816718631045657e+26   -7.8180233255047700e+26   -2.0381067170646020e+27   -2.0052220010659373e+27   -4.6592179854279996e+27   -2.7007284471509529e+27   -1.2509973621599529e+27   -1.5749632183755746e+27   -3.6748665555682620e+27   -8.0586018342619352e+26   -9.5812814252313668e+26   6.5465507613507816e+24   6.9642474703479473e+26   -3.7162565917174469e+26   -2.2544074658539177e+27   -3.9723999275801250e+27   -7.7138762810078859e+27   -1.6010332728717184e+27   -1.1150348209633576e+27   -1.0119536361112946e+27   -5.7873113583483051e+27   -3.5551674958266152e+27   1.9834736077546863e+27   -2.9457824085644740e+27   -1.2313943425286900e+27   -3.4404228715263779e+27   -3.7999102524062662e+27   -3.4384023744821051e+27   -3.4208743853537384e+27   -2.7871449994040602e+27   -4.5826868803037978e+27   -2.3826050121524700e+27   -2.9175005479121757e+27   5.9432561991754977e+26   -2.7279269780827049e+27   -2.4053133138078533e+27   -3.5154579882177079e+27   -5.5236640971227814e+27   -2.0457302503560082e+27   -1.7360384653606914e+27   -3.8159680827487081e+27   -1.9633964818061834e+27   -4.6498255153840782e+27   -2.6196599495033444e+27   -3.9087641052061043e+27   -2.4155567550093189e+25   -1.4940731583119302e+27   -2.0618778084667617e+27   -1.6549263334513911e+27   -1.5220612610760034e+27   -2.0606419456421832e+27   -2.4899335719318342e+27   -2.4238868461786392e+27   -3.8540485980825489e+27   -5.7274651247913873e+27   -1.9596708929911113e+26   -3.5661697197980109e+27   -1.5771302133549985e+27   -2.6501406398026661e+27   -3.4697339222608315e+27   -5.9310786844687409e+27   -1.6025753106994779e+27   -5.3311079897772973e+27   -1.8297462566610305e+27   -2.5073014932875171e+27   -7.5260196870459027e+26   1.7782794410710082e+24   -2.2479606187640262e+27   -2.5026228726620592e+27   -4.5690990611186055e+27   -4.9286593308924980e+26   -5.8765464671882459e+26   -1.1094315961838387e+27   -2.6850574550242638e+27   -4.1231780618797638e+27   -8.2426337609320668e+27   -7.0487699880406331e+26   -9.2971402730975191e+26   -2.8713603009786244e+27   -1.9632057728932214e+27   -5.1257624201149309e+27   -2.0387992361146681e+27   -3.4224532010851928e+27   -8.9554233382552651e+26   -6.3734395408848551e+27   -3.6866956871885654e+27   -2.9239262254084599e+27   -4.0317694597743017e+27   -4.6283668468117849e+27   -3.7846984189941704e+27   -1.5167394804989991e+27   -2.0747000992212872e+27   -1.8784976419587813e+27   -2.2890020014770941e+27   -2.5725898444662952e+27   -1.1867626107637401e+27   -2.0254103951593964e+27   -2.8695407206748942e+27   -3.0683370223363392e+27   -4.0828982512625685e+26   -3.2870328220501210e+27   -2.5019618300154187e+27   -4.6814175649595997e+27   -1.8758428230863579e+25   -1.2299472957323106e+27   -3.1833037932968590e+27   -6.2313941046910270e+26   -1.6221211629749383e+27   -3.5592752640129181e+26   -1.4751464995445340e+27   -1.8342505236755379e+27   -3.5873265498980148e+26   -8.7508039753176558e+26   -5.0304119200122944e+27   -2.5020422058355092e+27   -1.8331022743989805e+27   -2.2579411616525774e+27   -2.4961163437937702e+27   -3.1671581176976688e+27   -1.5019754475499971e+27   4.3973725845961849e+25   1.8084769821836494e+26   -1.6459714403622470e+27   -2.5133405588132197e+26   -1.3432802498779740e+27   1.2208334617228845e+26   -2.7515254559220893e+27   -2.3998260602583032e+27   -2.6364697763050377e+25   -1.5643739039222593e+27   -2.1616596608183962e+27   -1.1827568967131562e+27   -2.3900699675155704e+27   -4.0460713133928828e+27   -4.9333560597853140e+27   -1.6056421099676263e+27   -5.3480063388864713e+27   -3.0848338001843035e+27   -1.8619721772266520e+27   -4.7365664105863912e+27   -3.2717005634313253e+27   -3.8133359520072316e+26   -7.9519987270026821e+25   -1.7324352231808642e+27   -4.0596341233287704e+27   -2.4368526758865465e+27   -1.6653696262287611e+27   -2.2540320954378621e+26   -1.1374463934102452e+27   -2.6372072386399468e+27   -1.1410285410672182e+27   -2.5965821708068752e+26   8.4466119093045946e+26   -1.5170973963666896e+27   -2.4103230566896893e+27   -6.1181295132701843e+26   -4.4706822358615332e+26   -3.5978455940903630e+27   2.2761948650614001e+26   -2.5376495443988689e+27   -2.8563182945249215e+26   -2.8507350729914729e+27   -2.2246219774728983e+27   -1.9208945057079798e+27   -2.0309497468007302e+27   -4.0522519497134748e+26   -2.0667094727931454e+27   -6.4745601034155870e+26   1.6973177824230542e+25   3.0219796592221738e+26   6.2978322234867508e+26   -3.2334004152827802e+27   -1.7219219838807350e+27   -2.1910475101660895e+27   -5.8533263338002340e+26   1.2598100811940261e+27   -1.5828667313768828e+27   -5.6454959770709151e+27   -2.0943809250650569e+27   -2.4786142995991342e+27   -2.3105045935156007e+27   1.0621686448690075e+26   -4.7998513245266334e+26   7.2682863781256104e+26   -1.8046751256633846e+27   -1.7387075312209302e+27   -3.5805516133704198e+27   -3.7284803559974895e+27   -3.1833844292114120e+27   -4.4099473579876835e+27   -2.7443258065207283e+27   -3.0798577816170157e+27   -3.6982227185893882e+27   -5.1806614601381822e+27   -3.4369309188154457e+27   -1.7392974630484841e+27   -3.1780886592041898e+27   -4.2441316419244342e+27   -8.7362001855857107e+26   -2.6625151312480878e+27   -2.0734770034726971e+27   -2.9796579308333796e+27   -1.5045562905862697e+27   -5.5728911495066658e+25   -3.3075399288351945e+27   -6.7811444352762985e+27   -2.5488044378786436e+27   -8.2428484242408257e+26   -2.8044340952193071e+27   -5.0323167969446117e+24   -9.7170889204304062e+26   -5.1055799865430311e+26   4.6608644761855071e+26   -8.9326722828340059e+26   -3.6378568027104924e+26   -2.7725922909797010e+27   -3.2205854551269107e+27   -3.5400056810436576e+26   -1.8534164036646895e+27   -3.3778613665891596e+27   9.3211596915964041e+26   2.5354546831002333e+27   -3.5609369566655587e+27   2.2185132807386897e+27   -3.0997195419070949e+27   -3.8491462119562626e+27   -8.0187612105801241e+26   2.7519703339926005e+26   -4.5854511425549431e+27   -1.6044035694857723e+27   7.1264652914142490e+25   -3.1991801113040601e+27   -2.1546170419369795e+27   -3.4547875794262670e+26   -4.4114570833504870e+27   -2.3328118235617660e+27   -5.0615814189242266e+26   -1.4088024244217588e+27   -9.4272985080611877e+26   -2.0553294660379234e+27   -2.2618181016894907e+27   -1.4742948844906317e+27   -3.9090501824614547e+27   -8.0243288250150175e+26   -2.5415879301286106e+26   -3.406010397208685