<?xml version="1.0"?>
<VTKFile type="UnstructuredGrid"  version="0.1"  >
<UnstructuredGrid>
<Piece  NumberOfPoints="387" NumberOfCells="708">
<Points>
<DataArray  type="Float64"  NumberOfComponents="3"  format="ascii">0 3 0  0 -3 0  6 -3 0  6 3 0  3 -3 0  6 0 0  3 3 0  0 0 0  3 0 0  0 -1.5 0  1.5 -3 0  1.5 3 0  0 1.5 0  6 -1.5 0  4.5 -3 0  6 1.5 0  4.5 3 0  4.25 -1.25 0  1.75 1.25 0  2.25 -1.5 0  4.5 0.75 0  1.541666666666667 -0.2083333333333333 0  3.219827586206896 1.521551724137931 0  1.125 -1.875 0  4.875 1.875 0  0.8702651515151515 0.631628787878788 0  2.25 2.214285714285714 0  3.316176470588236 -1.904411764705882 0  5.214285714285714 -0.75 0  5.03125 -2.03125 0  0.96875 2.03125 0  4.041666666666667 -0.2083333333333333 0  0.8205128205128206 -0.9134615384615387 0  3.942582294752138 2.189194098250713 0  3.061487638533674 -0.968243819266837 0  2.192708333333333 0.4427083333333334 0  4.157850026972511 -2.182329047049442 0  2.331456616463011 -0.5285296485744057 0  3.654761904761905 0.5654761904761902 0  5.25 1.125 0  2.563673341677096 -2.280663329161452 0  5.126674107142857 0.1283482142857142 0  0.75 -3 0  0 -2.25 0  6 2.25 0  5.25 3 0  0.7680051888903191 -0.1384245958639337 0  1.617229471026718 -1.006949429867069 0  4.218940341429579 1.468686552856807 0  3.75 -3 0  2.25 -3 0  0.75 3 0  5.25 -3 0  6 -0.75 0  0 -0.75 0  0 0.75 0  2.25 3 0  6 -2.25 0  0 2.25 0  3.75 3 0  6 0.75 0  1.787573018358365 -2.279142327213878 0  3.195025188237337 2.273430909158844 0  2.528159645294386 1.151699106559287 0  1.041598427383826 1.322848427383826 0  1.520951704545454 0.4634232954545453 0  1.580357142857143 2.325892857142857 0  4.919642857142857 -1.361607142857143 0  4.54981623521892 -0.6483700862895494 0  2.99317863826574 0.6697091957925523 0  3.450169349029507 -0.4574865881858001 0  3.605016126014028 -1.323102984840902 0  2.745144658907412 1.882241931337371 0  0.4898065586600511 1.092777516238393 0  0.5 -1.875 0  1.217028489597945 -2.469323836800685 0  1.659912685567181 -1.604738056701542 0  5.4375 1.6875 0  5.34375 2.34375 0  4.52741779500503 2.384139265001677 0  3.375 -2.514804579549941 0  0.5446428571428571 -2.455357142857143 0  2.766554087216865 -1.745795909102064 0  4.525516559010988 0.1490283123570637 0  3.87554132162248 -0.8280516069565407 0  4.53622906132958 -1.76963146596888 0  0.4243951612903226 1.875 0  0.554851858345021 2.446861709948876 0  5.575604838709677 -1.875 0  5.445148141654979 -2.446861709948876 0  4.875 -2.575604838709677 0  1.440573466105381 1.721823466105381 0  2.193519495405082 1.631799415080963 0  5.472630128027442 -1.330813078900983 0  4.750126894286386 1.343813447143193 0  5.607142857142857 -0.375 0  2.625 2.607142857142857 0  0.3921763197810531 0.375 0  5.60901753622775 0.3750000000000001 0  1.125 2.613454943235572 0  3.701856738980915 1.163867513386733 0  3.736112850688509 1.696746876851408 0  3.519183195491339 0.06065128742606851 0  3.973620778217027 -1.693401606145563 0  0.8125 -1.444978632478633 0  1.256657745408029 -0.6381828923025001 0  0 -1.125 0  5.019997778514942 0.6475044429701156 0  4.125 3 0  1.285569332703024 0.8955310332120207 0  0 -0.375 0  0.4638922275641027 -0.5625 0  2.056635259780241 -0.07226025978024064 0  2.130475508371123 -1.000827820434028 0  2.677484372338113 -1.267299126394495 0  2.848680878891876 -0.4956836878192376 0  4.937901885089369 -0.3340245904575954 0  4.393563081308854 1.919544166973803 0  4.053859126323572 0.2813938488760716 0  1.181051704329518 0.1167440895674965 0  1.971354166666667 2.607142857142857 0  4.875 3 0  2.519350561152006 0.08093582719875507 0  3.139443301924015 -1.442524927271905 0  6 2.625 0  1.849169256239503 1.945480934753207 0  1.867196483071171 0.7892354369530077 0  1.192506522009051 -1.184888428863342 0  3.375 3 0  3.603234392481833 2.536866305538572 0  3.846752908916648 -2.537707634073423 0  2.014339897513945 -1.886932065281681 0  4.038392037966526 0.8363324773944992 0  4.421242701722609 -2.552534687860327 0  3.715389848650903 -2.108856956172843 0  2.985668138820625 1.127780908772207 0  0.4500794934449803 -1.173696061598557 0  3.366760888116476 0.8891914618875614 0  1.869163043700093 -0.6107175804171328 0  2.175114838273305 -2.53928723780967 0  3.014417665538299 -2.241523065744933 0  2.625 -3 0  2.819968145332426 -2.617202329573456 0  5.625 1.3125 0  5.563263538826679 0.814027077653358 0  5.625 3 0  2.550041671270923 0.7074928970804664 0  4.014583091741168 2.59891853892166 0  0.6440729668673318 1.499523832583132 0  5.219449799568244 -1.660557808485412 0  3.474012636702472 -0.9300738420779746 0  0.8125 -2.142857142857143 0  1.875 -3 0  4.945010515846405 2.554471797033147 0  2.611388969012422 -0.8478354915063726 0  3.223746055611014 0.3371683159691745 0  4.843939757110898 -0.9483610977948225 0  4.66556954816842 -2.220888354477256 0  4.125 -3 0  4.448108395110625 -0.2524000502731018 0  5.63671875 2.05078125 0  2.822484133964224 1.491327727709286 0  3.378213092764193 1.903125093887009 0  5.607142857142858 -0.9231200445788541 0  2.12639693023183 1.100450516019641 0  5.625 -3 0  0.375 3 0  0 2.625 0  6 -2.625 0  0.3931307155906299 -0.01856779822591927 0  0.7651723094668359 0.253768144801553 0  0.8549199714190221 -0.5218333744252657 0  1.421989550604507 -2.133299471886336 0  1.582611957351803 -2.615166692128227 0  4.420331038793115 1.133144382396504 0  0.375 -3 0  0 -2.625 0  5.078156723571596 1.54697017071479 0  1.877250715260938 -1.288801575378032 0  2.409169073010687 -1.916147168931784 0  1.146151077069952 -0.268000681695328 0  1.726784828652036 0.1335728643263411 0  2.745628549924675 0.3838821021397905 0  3.011490900297165 2.613625569196862 0  5.62463365164608 -4.137655439684362e-05 0  1.875 3 0  1.125 3 0  6 0.375 0  2.625 3 0  6 -1.125 0  6 -0.375 0  4.875 -3 0  6 -1.875 0  3.375 -3 0  1.125 -3 0  0 -1.875 0  0 0.375 0  0 1.125 0  0 1.875 0  6 1.125 0  6 1.875 0  4.813017731148975 0.9677363687196439 0  2.807371623148303 2.264962208227767 0  0.3692953377255688 0.7436406761680247 0  5.615625 2.615625 0  0.9395725521479794 0.9812935874921043 0  1.390920759130215 1.238984550166515 0  0.9588795022085095 1.672288500195331 0  0.87712392565124 -2.641031728267331 0  0.3665732993114588 -1.532068934251388 0  1.841944504733106 1.591700334213738 0  4.832970185136452 0.3385359233091246 0  4.169083540479082 -0.5746148619765254 0  5.281697083409333 -0.2046640461936881 0  4.072845380968044 1.784516523483641 0  1.293029195762321 -1.543079049035419 0  4.878733886054284 -1.720697370582964 0  3.609167475697567 -1.687579152754035 0  4.836981942878573 2.222259978217028 0  4.204938267037067 -0.9128589669335569 0  5.183079748175263 -1.111742407358677 0  1.22880920402559 2.273525645756405 0  1.469404041858679 2.654509729682302 0  4.566761045622856 -1.414165869120005 0  4.531680518427715 1.606803989975667 0  1.918929241273175 2.27471131819245 0  3.526908551984126 2.207147627530056 0  1.85683899811842 0.4533569963423589 0  1.173935704088662 0.4636872214645547 0  2.116602160898525 -2.207718541460878 0  4.51821874648995 -1.042568353750147 0  2.721551512787618 -0.1859357475290837 0  5.294921875 2.001953125 0  5.288671874999999 2.670703125 0  2.199940744527116 0.7756512213396931 0  4.090519467638897 1.163401080812838 0  2.298177083333333 2.670581371753247 0  2.484362362207526 -2.687319997637033 0  3.300530569898859 1.207053005217563 0  3.936078051808127 -1.362164062673065 0  5.341218841330105 0.5689885832563615 0  4.226314635599414 0.5638853401248238 0  2.524510956818563 1.635483567726497 0  0.3219546452225031 1.389066019009203 0  3.139061555368706 -0.3133905221155423 0  3.145569907612562 -0.6461828528638952 0  3.701427442033566 -0.2272880199383185 0  1.686782510365738 -1.934662341426927 0  2.427696494631844 1.944064773844184 0  3.901817839425732 1.422433381251312 0  2.356489883772755 -0.2025512972825912 0  4.820757576351118 -0.01647699434507374 0  3.064415631228375 1.809719380809516 0  4.643002705009462 2.69782572459795 0  4.31624250429496 2.728112685900672 0  1.520100694408069 -1.314302747998057 0  3.754559308601717 -0.5375020107416889 0  0.25 -2.0625 0  0.8125 -1.826636904761905 0  4.861738621091127 -0.6367294570749906 0  1.545149590740081 2.015832101819233 0  3.857113324620078 0.04127675193819436 0  0.2479605082936806 -0.9375 0  4.21293081604216 2.352874368135467 0  3.123697687162562 -2.708090473740421 0  3.415275466010259 -2.202892416689829 0  3.601103065320932 -2.727566580522146 0  1.558629964945672 -0.5289921609136927 0  3.324859026263307 -1.198136798699183 0  2.424350759683917 -1.092246517929194 0  2.746461744851735 0.9398108087856579 0  0.8882026075771248 2.364936378889839 0  0.8066140242673685 2.679750706449505 0  4.504454978490482 0.4491616076730165 0  4.26881784709759 -0.009649566552704852 0  1.3125 -2.75919801263958 0  1.120577805361368 -2.179971784090952 0  3.734048623985226 0.8602850349907256 0  3.527828882622877 1.432983527791925 0  1.959527908877504 -1.578124930685265 0  0.7602573574724077 1.220872343399509 0  0.6691217533356228 0.8531987603309893 0  1.877213035764122 -2.564340152892596 0  3.32172153715047 2.685939810104955 0  4.285565286275464 -1.569057178671076 0  4.227521511146333 -1.876903861267543 0  5.34375 1.40625 0  5.71875 1.59375 0  1.56245959534423 0.766197796710638 0  0.2458241530773257 2.4375 0  0.2794123857609179 2.138568368155198 0  5.754175846922674 -2.4375 0  5.720587614239082 -2.138568368155198 0  0.6472458227887359 2.124973059628837 0  5.124241021325378 -2.352544055105642 0  5.189172233440652 -2.675873509996353 0  5.364643151640443 -2.12768524739804 0  2.298896485720138 1.348573610321417 0  0.6008689899200503 -2.745193425346304 0  0.307092513690391 -2.651812055231556 0  0.2683745826107009 -2.363146293324415 0  0.5223214285714285 -2.165178571428571 0  0.3925308914031174 2.699891746740618 0  5.607469108596883 -2.699891746740618 0  2.138365140930822 1.917102089073091 0  1.25507379660067 1.953406658386351 0  4.135759889512124 -2.476847355718572 0  0.5330865684534913 -0.8980875812659357 0  2.548249345531056 -1.538893887888457 0  2.67686064875775
[...]
<CellData  Scalars="f_26-2"> 
<DataArray  type="Float64"  Name="f_26-2"  format="ascii">3.5143824781973699e+45   2.2502947100388745e+46   2.0532326122003414e+46   4.9496903672812778e+46   1.0804411614401423e+46   1.7056889225668001e+46   -8.4372001631392332e+45   5.7980199966262204e+45   -2.1715502050331269e+44   5.2073213647156607e+44   9.0418084824752985e+45   -1.9168667982436250e+46   -7.5079710577357763e+45   -1.7390856828500783e+46   -1.2837350004822003e+44   -4.3865343039026026e+45   -1.5695635305814146e+46   2.2638846227058660e+45   -3.5915950719662462e+45   -1.0944277700527218e+45   1.3843481694892821e+45   -6.1020491081170274e+45   -5.2940917626893137e+45   1.7217893510584014e+45   4.3874509184244414e+45   -1.7471188826354208e+45   2.8101587948943670e+46   3.8027391631748873e+45   4.9142332865436441e+45   -5.5218220209791923e+44   1.6324294077444830e+45   -9.4800038034424057e+45   -2.3174995460372484e+43   -1.7435368968680923e+46   1.2909241633502356e+46   1.2172474214353431e+46   -3.7727999281308936e+44   1.0774192114004228e+45   -1.3919529829679636e+46   3.2680838206640851e+45   6.3663296809821853e+45   -3.1974321505189281e+44   -9.2289910211588290e+45   -9.9667607605837308e+45   -3.0150837874447010e+46   -1.3663537452675132e+46   -1.2067597808423089e+46   -3.7965637586642834e+47   2.0811785226798952e+46   -1.7153830124661679e+46   1.8153996244529992e+46   -2.7977385126883954e+46   1.6288782558885631e+46   3.2247792523505265e+45   1.3396484496801840e+46   1.1829496644405616e+46   -2.1431843669499268e+46   -9.7212424806644787e+45   -5.5481950255760436e+44   -6.6695560578401176e+44   9.7018957275874845e+44   1.5311985507983195e+45   -9.3874044278589745e+44   -3.2875214712474000e+45   6.4875935037577876e+46   -1.2043498019378923e+47   8.6516762696685655e+44   -4.8660890766373188e+46   -2.7149374165468328e+45   7.0878891242734026e+45   -3.4054962842337188e+45   -1.3401733841962272e+46   4.4703122135865767e+45   5.2602489279395388e+45   -2.4104422652393771e+45   -6.9089643078552135e+45   1.7404714449197500e+46   1.0390220693177234e+45   -5.7920751181762557e+45   -1.1647568557097137e+44   -1.1739641604645756e+45   -6.6086129292201659e+44   -1.2881424626637676e+45   2.7417712112023373e+45   2.3389244894541672e+45   4.4969153830368031e+45   -1.7289809379879905e+45   3.6761337663418311e+44   -2.4216159795767598e+45   -4.4956588034500510e+45   1.1340924063916492e+45   -8.6713665261497661e+45   -3.2882786606317905e+45   7.4601367421522704e+44   2.1754794248578783e+45   1.8512257988788454e+45   -3.7045666130494419e+45   -5.2840005839722219e+45   -2.9028232160588928e+47   1.2866024573394772e+46   1.1798905944564481e+46   3.7337855419749571e+46   1.3089565222089569e+46   1.7518031060298873e+46   -5.2199151712345184e+45   -2.6419888846778869e+46   4.5811176338816550e+47   -7.1317568089483995e+45   -1.1144932392666642e+46   5.0178209057458784e+45   8.0516115251952698e+45   -8.0992637009786689e+45   -6.8112620065466227e+45   -2.1956091873873471e+45   -1.6560243575247519e+45   5.0961519765813938e+44   3.2249909513807929e+44   -4.2483296661034153e+45   -1.0208843421192004e+45   8.7277423261782502e+44   3.6507021950789882e+45   -3.5428310330694373e+44   -5.3787796109410698e+45   8.8800829976815724e+44   2.5089067981150988e+44   -3.6675894065863567e+44   -7.3104144232435449e+44   7.5615695329429148e+46   -1.0182120643929484e+44   -1.2735882350524535e+46   -2.4365020272283214e+46   5.9568412883853748e+45   4.7395860865398129e+46   -3.2851132569100698e+45   -4.6996898222462711e+45   -5.7310284188778807e+45   1.0538391693587608e+47   3.3420309492273821e+46   -5.6552496412722729e+45   -9.3447927683466307e+45   -7.9218039359496042e+45   -9.0329813616407008e+45   -6.3829319575786199e+45   -2.4416638241065080e+45   7.8522291720750690e+44   -1.6998672911942316e+44   2.3000027509961851e+46   1.1131890931049742e+46   2.9545727544425162e+44   1.1262054468309499e+46   -1.1750464132239813e+46   -3.0681591154198423e+46   -6.9396178641915516e+45   -1.1220999023305371e+46   2.2387173513433860e+44   -8.6338585609439716e+44   3.2374599772934148e+45   3.7578416926197038e+44   -1.4434650559075222e+47   -2.1988735402324543e+46   -2.1291487552869060e+47   7.4198350161919152e+45   3.9614277731226137e+45   5.4883508654133300e+45   6.0541925426021562e+45   5.0912710816347008e+45   4.5157815807759442e+45   7.6897153444987848e+45   1.7210077827734789e+45   9.0828911052558611e+44   -4.4661889321134256e+45   -5.6870000843853250e+45   -2.6793879784110011e+46   -2.8399741192642120e+46   -5.4680021872133649e+45   -2.9812999759477465e+45   6.5539434127491311e+45   1.0782241450121776e+46   7.4618128655559021e+45   3.7060651605507015e+46   2.1377796552117669e+47   3.6173189757775559e+46   5.6939442274182511e+44   -1.0001157536864566e+45   1.2439324862620852e+45   3.5660157659860580e+45   7.7343639018924423e+45   -2.0802417024597588e+46   -1.5765396083016636e+45   -4.0581577859241823e+44   -2.4040739381233619e+45   -2.2538726562922697e+44   1.3069101239535906e+46   1.5357783069325838e+46   9.2337932164028279e+45   1.1841716471434977e+46   1.5283193890722709e+47   2.6476343698565530e+46   1.0702879760551115e+45   9.5377410599872377e+45   1.0080024354594995e+46   -9.1908713539542284e+45   -1.0869057456214846e+46   -1.1928417101533590e+46   -6.7400122391748869e+45   5.9798370455727701e+44   1.3892646318468167e+45   -4.7682480262123966e+45   -3.2715471529881221e+45   5.7340181384538701e+45   1.2096986627797291e+46   -4.3344849021574338e+45   -4.1919190636247133e+45   5.3813920877554901e+45   7.3425839406469044e+45   -2.7116774581742881e+45   4.6859727635176289e+45   3.4984265693180941e+45   -1.3158290924121276e+46   -8.4675699373455705e+45   -6.7494526015746242e+46   -1.0710805393676258e+47   2.4354345416018389e+47   1.9600599788834385e+47   -2.4612119280067192e+45   3.1420978017782993e+47   3.1922911610779039e+47   -3.2852351530103141e+44   -1.4415128437092660e+45   2.8546110275570011e+47   1.3904002151529998e+47   -4.1070905796464372e+45   1.0828565834018894e+45   6.4640751118769531e+43   5.7587065439278460e+44   2.5689283493185858e+45   2.8158907250952386e+45   4.3357620369180118e+46   -6.7155822902200573e+45   -1.6528849358402309e+47   -3.0362616118158306e+47   -3.5551055272418609e+46   -3.9271066986939522e+46   9.2845304826762598e+45   7.1209787042910596e+45   -3.3048609535475049e+45   3.1459530700880492e+44   -3.2442598639220683e+44   -2.0439403955255544e+45   -4.4282279082322868e+44   1.5372195744208853e+44   -4.8497550103971301e+46   -4.9980766203174704e+45   -4.9461023344708786e+45   -1.9346222430285354e+45   2.6128943713011337e+47   -1.1783224374634037e+45   -3.3870264782617249e+45   -4.0015739851264152e+45   -6.3342411842714869e+45   2.8610309118775070e+45   -3.7260164228278867e+45   -1.8078635886419803e+45   6.2200024373802745e+44   -8.0695079786529838e+45   -1.9462771679032199e+46   -3.3323763352757404e+45   1.4218681582506530e+46   -2.9230893636945530e+45   -4.7296164162363800e+45   -5.9830665395635745e+45   1.3662466002273303e+45   -7.6069761832460373e+46   -2.4134812086647128e+45   4.2247616131551104e+45   3.5354897049153400e+45   -2.5428390274116628e+46   7.4502003070354523e+45   2.1190643453372495e+46   2.9247063359506921e+46   -7.7526429740485973e+46   -5.7143388974601773e+45   -1.2197255621881323e+46   -1.1825464492129348e+46   -6.8835658317002774e+47   -3.0038339463303992e+47   -6.6957310331561683e+47   -3.9613220172130202e+46   -9.8154912692488780e+45   -3.5702127217104496e+46   1.4882847670000922e+46   2.0367870021180979e+46   5.5224182869979535e+45   4.3400864829526419e+45   8.5152210945970400e+45   4.1601999735944909e+45   4.2027129134012578e+45   5.4857309905072849e+45   -7.2715217581188636e+44   -1.7024085362289276e+45   1.1690090936996518e+47   5.2848022613631643e+46   1.1834199858202356e+45   1.4562520471394078e+47   9.3363527843581700e+45   5.9519333459908962e+46   1.0695836867898730e+46   1.4552538064193078e+46   7.4333906530559875e+46   1.9931864940554199e+47   5.9196542812779289e+45   1.1472932354637737e+47   1.1380771369678135e+46   2.9898223699760474e+46   5.9180623652931797e+46   5.1135949430426130e+46   -1.3575982638098040e+46   -9.2017291477041262e+46   5.1376961440742865e+45   8.8087979275228967e+45   -1.3665511091860555e+45   -6.1161464203069577e+46   -2.9735351847337432e+46   -5.6045847299234454e+47   -1.1592519984750175e+47   -1.3478193194884558e+47   -1.2930820140211952e+47   -1.6693305467659770e+46   -3.3125883987524250e+45   -3.3918447600849438e+46   -6.3261433342080295e+45   -1.0987862361376610e+46   1.0886288625528191e+47   2.5765436267391710e+47   2.5123714911047429e+47   1.2585518045758998e+47   -1.6592665973912277e+46   -1.3955078759500740e+46   -2.8097124142543303e+45   -2.5397244653822427e+45   -9.3278942353774163e+46   -4.3645781792304841e+46   3.7461963335576532e+47   1.8628563851560597e+47   2.3473199563854050e+45   9.0883592780133737e+44   2.8291215806300309e+44   4.3319468629082175e+44   6.9829583570324979e+44   5.8787526592474864e+44   -3.1674268792074746e+47   -1.4766455026874560e+47   -1.9102775813610479e+47   -9.2793985344447280e+46   -9.7242530481617720e+44   -1.2137357841251788e+45   -7.9995990279068237e+45   -5.6639583591142945e+45   -3.1397607509312289e+45   -3.7078718559248928e+45   5.0360156529332761e+45   -3.0955143547170560e+45   -9.0060603095161008e+45   -1.5397717448927228e+46   2.3863238107453225e+46   3.1776368213892577e+46   -6.7200453277475570e+44   1.7619295436304683e+44   2.9867077279642763e+45   3.3270284140127472e+45   -3.0836312595473331e+46   -3.3110621777198034e+46   -1.6405075332023207e+45   6.4531677537144199e+44   -3.7641002646094883e+45   -2.2876597599321441e+45   8.4803095379513138e+44   -1.2784153850646154e+45   7.7559077139660063e+46   2.9568062981902799e+46   -7.6521884698469368e+44   -9.8507967434343703e+44   -1.8326701631945724e+46   -1.9428507727172349e+46   -2.1827257820697684e+44   2.2186416547246209e+45   -7.6950133945105851e+45   -3.4612694729788379e+45   3.4444255251915752e+45   2.4725197601134118e+45   1.1114878431529723e+45   2.4008807552984582e+45   1.1152749114985248e+46   -7.9834049297568540e+46   -9.1961595292732392e+44   -2.2572768382909252e+45   3.0029107007334725e+45   1.7116952431662150e+45   -3.0387096836173354e+46   -2.6550623385960665e+46   1.7322922091592257e+47   3.4965635448780892e+47   1.3144753320931350e+45   2.3726741964954733e+44   -1.3944047139240821e+46   -1.1079361436958098e+46   3.8030675205311030e+46   6.7032705766042216e+46   -1.8065638395450920e+47   -1.3503532437692469e+47   -6.7928611009090741e+45   -8.0461558962021024e+45   1.3401928530992898e+45   2.1898015676835126e+45   -6.6144211323741640e+45   -2.7572590350391647e+45   -8.8930450267285651e+45   -9.8076165666961629e+45   -9.2914874484049017e+44   -2.0024971916753087e+45   -6.1193582905443701e+46   -1.3583377808083172e+46   -1.0987112915275054e+45   -1.4427395064159345e+43   1.7405042985325265e+45   1.0757833982967066e+45   -2.3588232464742228e+45   -2.2726652967149546e+45   1.5220530688253160e+46   1.5489707499872622e+46   -2.2207250473062330e+45   -5.3550937054091072e+44   -1.2549879845624818e+46   -1.0242936733099098e+46   3.1442387612584624e+45   4.6838008579485159e+45   -6.8420910741004589e+45   -7.1802318656805346e+45   -4.2994839582483217e+45   -4.9229820152220978e+45   1.2569910474407221e+46   1.8448007217425040e+46   2.4628444056250989e+47   1.0523688201574338e+47   1.7195477977674212e+46   1.6066191008400311e+46   4.1690597190628506e+44   -6.4635678187694515e+43   -2.4930181282331972e+46   -9.4013556630693676e+45   4.2452550384498683e+46   4.1648943939104357e+46   -3.7804758418279103e+45   -4.5592816906433517e+45   9.3420778828323946e+44   8.9682918517287885e+44   -5.4871984280178473e+45   -3.9925949153082049e+45   -1.8073552857690786e+46   -8.0568092101992957e+46   -1.9479178050184482e+46   -2.2160285136576955e+46   -1.0281309987910036e+47   -1.6774416059172518e+46   2.7015861471622162e+45   -1.5831727573221319e+45   -4.8929306420675475e+46   -9.2140805930588336e+46   8.4899004241297314e+45   9.6174552141615813e+45   4.8313356372956957e+45   3.5901120520639014e+45   1.2535786964787268e+46   8.7875610684943973e+45   -3.4059495367432842e+45   -2.1048211121012616e+45   2.1188874052540817e+45   5.3280237803345637e+44   1.4634272045229372e+45   -1.5011091758557583e+45   -8.5327175801409561e+45   -1.0157428183837832e+46   -5.2329541672520903e+45   -5.4727535640217610e+45   -1.2618781959926569e+47   -2.3055417922077957e+46   3.0879435548267004e+46   3.5984707724450585e+46   -7.3481696761086833e+45   -6.7626842527594531e+45   -6.6367095877391589e+45   -7.6459414885955689e+45   1.4015000555804706e+46   1.5916626926309539e+46   1.4352197277548185e+45   1.1189832805997790e+45   8.4615107242491406e+44   -5.5612269628466964e+44   -3.7365788923045127e+45   2.3794368902915522e+45   2.0281938554100142e+47   8.8831891161863420e+46   3.3810681273316265e+44   -2.7859502567816620e+44   -2.6536867483168189e+44   1.9925157431982272e+44   -2.2437282119498876e+46   -1.8813905896567855e+46   1.2364088928470514e+47   2.2818543475414123e+46   2.1176381526937610e+45   2.6931682343585211e+45   -2.0788409282826351e+45   -3.2287982280686878e+45   -2.4078905781152217e+46   -1.5191533636777553e+46   9.9513176102552104e+44   3.8794600800357688e+45   2.0090487953032213e+46   1.3659897327672897e+46   4.4239707484514312e+44   4.2821907264821376e+44   3.8539774031854988e+45   2.0046721515129892e+45   -1.1436379581598543e+45   1.7781513773682720e+45   3.5142510032803661e+45   5.8950243283968611e+45   -3.2420260997564114e+45   -2.6119417309265143e+45   -2.1580822978464970e+47   -9.5602494324813866e+45   -5.3091165841993186e+47   -2.9399623374380178e+47   -2.4954456585774617e+46   -2.2432222444937992e+47   5.3022459448795854e+46   4.1319125097972573e+46   4.9543142322638679e+45   3.1703966832567998e+45   -7.9462626373411079e+45   -1.2077396084146412e+46   -9.8792573462789394e+44   -1.2287835020973024e+45   4.6752188664562166e+44   5.6363884321807559e+44   -1.4471196254477407e+45   3.1203749036605814e+44   1.1391919275805736e+46   6.0141335174336552e+45   9.2812972715018774e+45   7.8287615578150920e+45   6.1697283185656338e+45   6.4300043040090308e+45   4.5280608140308862e+45   5.4038510440702156e+45   -2.1702966624875026e+45   4.9048622010643769e+44   -7.6154779538612063e+45   -6.6245418479530153e+45   -5.3864479094337834e+45   -5.9891565938260519e+45   4.7700411593315378e+45   5.2651285345539483e+45   -6.4826580152365705e+44   -6.9239273034512862e+43   1.6507507614705396e+46   3.8958988469113667e+46   -1.9635447002011598e+46   -5.4308969358553790e+46   -5.9008969821461178e+46   -1.9162923981132405e+46   4.2818024454067972e+46   9.3356551216038752e+45   6.6907387407805014e+45   1.6691203827647930e+47   2.2896873716562801e+46   2.7493384463728405e+46   5.9378066450463734e+44   3.6479218388058926e+44   -5.3891663814511848e+44   -1.2783586407675078e+44   -1.0654343950846964e+45   -1.3866515054967785e+44   -1.3724926969071174e+46   -1.2698751719051373e+46   2.1864625622492297e+45   3.4570309123800056e+44   9.2225539805935486e+44   1.5842075068357633e+45   -4.3338081975499689e+45   -3.5528093007789855e+45   1.1529176444512848e+46   5.3670642465362635e+45   4.9816089429912792e+43   5.3325057557932506e+44   1.3586352281327910e+45   1.5618595586224359e+45   -1.1329169083565789e+46   -1.2720027111846416e+46   1.2908068599250749e+46   1.3259451993189847e+46   -5.1005269820354121e+44   1.7254742184335078e+44   -7.9577650868165743e+46   -3.1705157879014113e+46   1.5055970795873598e+46   1.4750804872160559e+46   2.0481759522790338e+45   3.5871675473253319e+45   9.7885107224920200e+46   5.0612831764757056e+46   -4.0940108570537632e+46   -1.2278796417719129e+47   -6.2872360871878302e+45   -5.6599430994784134e+45   6.1004331636661019e+45   7.3464451936800023e+45   -2.5412249881577509e+46   -2.9278050632544090e+46   -2.1661661055088946e+46   -2.2311285630981713e+46   -1.4192378274321848e+44   -6.0088240199912598e+44   2.5226990063016305e+46   5.3978914069734551e+46   -1.5680655327395617e+45   6.9252430060706173e+44   -6.0316763622719120e+46   -1.9472901530665152e+46   -2.8369770303107102e+44   2.7314088392925603e+45   2.6926531922292879e+46   1.4227408409009995e+46   7.3587544095887860e+45   7.3577586249488121e+45   -4.4728617018270895e+46   -8.7431269985174617e+46   -2.6438093609036302e+46   -2.8027726158561900e+46   -3.5564879187751856e+46   -1.0961713000891423e+46   3.7556380433189058e+46   1.1732719700311120e+47   -1.1952482876922731e+45   -1.9542231536729816e+45   8.7576158766118160e+45   3.6355792592354340e+46   1.8355121455952952e+46   1.6476416278903340e+46   2.9061518789024604e+46   2.7703371334092354e+46   3.2427592927233258e+46   3.6662961918934974e+46   2.8096457426403834e+46   8.4964924593569038e+46   -1.4335584612229737e+46   -3.6381600323871500e+46   -6.3051808949137919e+46   -1.4463487305719828e+47   3.5408346021119287e+46   2.1569866111449079e+46   6.9892607370373458e+46   2.7887212210498449e+46   1.1336672630717806e+48   1.1253592749377748e+48   -9.3228114197634140e+45   -9.5063361557259457e+45   -8.8063119165124150e+45   -7.3270181999602243e+45   5.2987859196685216e+45   5.0187034731277059e+45   1.6448130769252940e+47   4.4991538669785476e+46   -2.1921246014276124e+46   -1.7751089316088622e+46   -1.8901978674954746e+44   -4.9917479744722492e+44   -3.9565628617734439e+45   2.8270590760697608e+44   -5.2858969239348357e+44   -1.6437813608800685e+45   -6.8603190650249203e+46   -2.7861126067365245e+46   5.3251542789941439e+46   4.0165089661173179e+46   -3.9058387025922284e+46   -3.7306918515581997e+46   3.3580545023474561e+45   2.4199914819559271e+45   5.2215332773330027e+45   4.1461119568508061e+45   2.1479288541142186e+44   5.2096192283839247e+44   3.0526487827017173e+45   2.5074741786957643e+45   1.3746425678216115e+46   1.4692334767657209e+46   1.0974787172339388e+46   1.1740241391815344e+46   1.0797008580429328e+46   1.0305206735820553e+46   8.4467764359614699e+45   9.7655909606483656e+45   -1.6134986084863583e+45   -1.5347283457339636e+45   -1.9540685954006683e+45   1.8642861135848259e+44   </DataArray> 
</CellData> 
</Piece>
</UnstructuredGrid>
</VTKFile>