<?xml version="1.0"?>
<VTKFile type="UnstructuredGrid"  version="0.1"  >
<UnstructuredGrid>
<Piece  NumberOfPoints="2534" NumberOfCells="4892">
<Points>
<DataArray  type="Float64"  NumberOfComponents="3"  format="ascii">0 3 0  0 -3 0  6 -3 0  6 3 0  3 -3 0  6 0 0  3 3 0  0 0 0  3 0 0  0 -1.5 0  1.5 -3 0  1.5 3 0  0 1.5 0  6 -1.5 0  4.5 -3 0  6 1.5 0  4.5 3 0  4.25 -1.25 0  1.75 1.25 0  2.25 -1.5 0  4.5 0.75 0  1.541666666666667 -0.2083333333333333 0  3.219827586206896 1.521551724137931 0  1.125 -1.875 0  4.875 1.875 0  0.8702651515151515 0.631628787878788 0  2.25 2.214285714285714 0  3.316176470588236 -1.904411764705882 0  5.214285714285714 -0.75 0  5.03125 -2.03125 0  0.96875 2.03125 0  4.041666666666667 -0.2083333333333333 0  0.8205128205128206 -0.9134615384615387 0  3.942582294752138 2.189194098250713 0  3.061487638533674 -0.968243819266837 0  2.192708333333333 0.4427083333333334 0  4.157850026972511 -2.182329047049442 0  2.331456616463011 -0.5285296485744057 0  3.654761904761905 0.5654761904761902 0  5.25 1.125 0  2.563673341677096 -2.280663329161452 0  5.126674107142857 0.1283482142857142 0  0.75 -3 0  0 -2.25 0  6 2.25 0  5.25 3 0  0.7680051888903191 -0.1384245958639337 0  1.617229471026718 -1.006949429867069 0  4.218940341429579 1.468686552856807 0  3.75 -3 0  2.25 -3 0  0.75 3 0  5.25 -3 0  6 -0.75 0  0 -0.75 0  0 0.75 0  2.25 3 0  6 -2.25 0  0 2.25 0  3.75 3 0  6 0.75 0  1.787573018358365 -2.279142327213878 0  3.195025188237337 2.273430909158844 0  2.528159645294386 1.151699106559287 0  1.041598427383826 1.322848427383826 0  1.520951704545454 0.4634232954545453 0  1.580357142857143 2.325892857142857 0  4.919642857142857 -1.361607142857143 0  4.54981623521892 -0.6483700862895494 0  2.99317863826574 0.6697091957925523 0  3.450169349029507 -0.4574865881858001 0  3.605016126014028 -1.323102984840902 0  2.745144658907412 1.882241931337371 0  0.4898065586600511 1.092777516238393 0  0.5 -1.875 0  1.217028489597945 -2.469323836800685 0  1.659912685567181 -1.604738056701542 0  5.4375 1.6875 0  5.34375 2.34375 0  4.52741779500503 2.384139265001677 0  3.375 -2.514804579549941 0  0.5446428571428571 -2.455357142857143 0  2.766554087216865 -1.745795909102064 0  4.525516559010988 0.1490283123570637 0  3.87554132162248 -0.8280516069565407 0  4.53622906132958 -1.76963146596888 0  0.4243951612903226 1.875 0  0.554851858345021 2.446861709948876 0  5.575604838709677 -1.875 0  5.445148141654979 -2.446861709948876 0  4.875 -2.575604838709677 0  1.440573466105381 1.721823466105381 0  2.193519495405082 1.631799415080963 0  5.472630128027442 -1.330813078900983 0  4.750126894286386 1.343813447143193 0  5.607142857142857 -0.375 0  2.625 2.607142857142857 0  0.3921763197810531 0.375 0  5.60901753622775 0.3750000000000001 0  1.125 2.613454943235572 0  3.701856738980915 1.163867513386733 0  3.736112850688509 1.696746876851408 0  3.519183195491339 0.06065128742606851 0  3.973620778217027 -1.693401606145563 0  0.8125 -1.444978632478633 0  1.256657745408029 -0.6381828923025001 0  0 -1.125 0  5.019997778514942 0.6475044429701156 0  4.125 3 0  1.285569332703024 0.8955310332120207 0  0 -0.375 0  0.4638922275641027 -0.5625 0  2.056635259780241 -0.07226025978024064 0  2.130475508371123 -1.000827820434028 0  2.677484372338113 -1.267299126394495 0  2.848680878891876 -0.4956836878192376 0  4.937901885089369 -0.3340245904575954 0  4.393563081308854 1.919544166973803 0  4.053859126323572 0.2813938488760716 0  1.181051704329518 0.1167440895674965 0  1.971354166666667 2.607142857142857 0  4.875 3 0  2.519350561152006 0.08093582719875507 0  3.139443301924015 -1.442524927271905 0  6 2.625 0  1.849169256239503 1.945480934753207 0  1.867196483071171 0.7892354369530077 0  1.192506522009051 -1.184888428863342 0  3.375 3 0  3.603234392481833 2.536866305538572 0  3.846752908916648 -2.537707634073423 0  2.014339897513945 -1.886932065281681 0  4.038392037966526 0.8363324773944992 0  4.421242701722609 -2.552534687860327 0  3.715389848650903 -2.108856956172843 0  2.985668138820625 1.127780908772207 0  0.4500794934449803 -1.173696061598557 0  3.366760888116476 0.8891914618875614 0  1.869163043700093 -0.6107175804171328 0  2.175114838273305 -2.53928723780967 0  3.014417665538299 -2.241523065744933 0  2.625 -3 0  2.819968145332426 -2.617202329573456 0  5.625 1.3125 0  5.563263538826679 0.814027077653358 0  5.625 3 0  2.550041671270923 0.7074928970804664 0  4.014583091741168 2.59891853892166 0  0.6440729668673318 1.499523832583132 0  5.219449799568244 -1.660557808485412 0  3.474012636702472 -0.9300738420779746 0  0.8125 -2.142857142857143 0  1.875 -3 0  4.945010515846405 2.554471797033147 0  2.611388969012422 -0.8478354915063726 0  3.223746055611014 0.3371683159691745 0  4.843939757110898 -0.9483610977948225 0  4.66556954816842 -2.220888354477256 0  4.125 -3 0  4.448108395110625 -0.2524000502731018 0  5.63671875 2.05078125 0  2.822484133964224 1.491327727709286 0  3.378213092764193 1.903125093887009 0  5.607142857142858 -0.9231200445788541 0  2.12639693023183 1.100450516019641 0  5.625 -3 0  0.375 3 0  0 2.625 0  6 -2.625 0  0.3931307155906299 -0.01856779822591927 0  0.8549199714190221 -0.5218333744252657 0  0.7651723094668359 0.253768144801553 0  1.421989550604507 -2.133299471886336 0  1.582611957351803 -2.615166692128227 0  4.420331038793115 1.133144382396504 0  0.375 -3 0  0 -2.625 0  5.078156723571596 1.54697017071479 0  1.877250715260938 -1.288801575378032 0  2.409169073010687 -1.916147168931784 0  1.146151077069952 -0.268000681695328 0  1.726784828652036 0.1335728643263411 0  2.745628549924675 0.3838821021397905 0  3.011490900297165 2.613625569196862 0  5.62463365164608 -4.137655439684362e-05 0  1.875 3 0  1.125 3 0  6 0.375 0  2.625 3 0  6 -1.125 0  6 -0.375 0  4.875 -3 0  6 -1.875 0  3.375 -3 0  1.125 -3 0  0 -1.875 0  0 0.375 0  0 1.125 0  0 1.875 0  6 1.125 0  6 1.875 0  4.813017731148975 0.9677363687196439 0  2.807371623148303 2.264962208227767 0  0.3692953377255688 0.7436406761680247 0  5.615625 2.615625 0  0.9395725521479794 0.9812935874921043 0  1.390920759130215 1.238984550166515 0  0.9588795022085095 1.672288500195331 0  0.87712392565124 -2.641031728267331 0  0.3665732993114588 -1.532068934251388 0  1.841944504733106 1.591700334213738 0  4.832970185136452 0.3385359233091246 0  4.169083540479082 -0.5746148619765254 0  5.281697083409333 -0.2046640461936881 0  4.072845380968044 1.784516523483641 0  1.293029195762321 -1.543079049035419 0  4.878733886054284 -1.720697370582964 0  3.609167475697567 -1.687579152754035 0  4.836981942878573 2.222259978217028 0  4.204938267037067 -0.9128589669335569 0  5.183079748175263 -1.111742407358677 0  1.469404041858679 2.654509729682302 0  1.22880920402559 2.273525645756405 0  4.566761045622856 -1.414165869120005 0  4.531680518427715 1.606803989975667 0  1.918929241273175 2.27471131819245 0  3.590183783343969 2.184680610175416 0  1.85683899811842 0.4533569963423589 0  1.173935704088662 0.4636872214645547 0  2.116602160898525 -2.207718541460878 0  4.51821874648995 -1.042568353750147 0  2.721551512787618 -0.1859357475290837 0  5.294921875 2.001953125 0  5.288671874999999 2.670703125 0  2.199940744527116 0.7756512213396931 0  4.090519467638897 1.163401080812838 0  2.298177083333333 2.670581371753247 0  2.484362362207526 -2.687319997637033 0  3.300530569898859 1.207053005217563 0  3.936078051808127 -1.362164062673065 0  5.341218841330105 0.5689885832563615 0  4.226314635599414 0.5638853401248238 0  2.524510956818563 1.635483567726497 0  0.3219546452225031 1.389066019009203 0  3.139061555368706 -0.3133905221155423 0  3.145569907612562 -0.6461828528638952 0  3.701427442033566 -0.2272880199383185 0  1.686782510365738 -1.934662341426927 0  2.427696494631844 1.944064773844184 0  3.901817839425732 1.422433381251312 0  2.356489883772755 -0.2025512972825912 0  4.820757576351118 -0.01647699434507374 0  3.064415631228375 1.809719380809516 0  4.643002705009462 2.69782572459795 0  4.31624250429496 2.728112685900672 0  1.520100694408069 -1.314302747998057 0  3.754559308601717 -0.5375020107416889 0  0.25 -2.0625 0  0.8125 -1.826636904761905 0  4.861738621091127 -0.6367294570749906 0  1.545149590740081 2.015832101819233 0  3.857113324620078 0.04127675193819436 0  0.3162874907704933 -0.864918315983958 0  4.21293081604216 2.352874368135467 0  3.123697687162562 -2.708090473740421 0  3.415275466010259 -2.202892416689829 0  3.601103065320932 -2.727566580522146 0  1.558629964945672 -0.5289921609136927 0  3.324859026263307 -1.198136798699183 0  2.424350759683917 -1.092246517929194 0  2.789248065239812 0.8954629970670158 0  0.8882026075771248 2.364936378889839 0  0.8066140242673685 2.679750706449505 0  4.504454978490482 0.4491616076730165 0  4.26881784709759 -0.009649566552704852 0  1.313479173834523 -2.758675889510418 0  1.120577805361368 -2.179971784090952 0  3.734048623985226 0.8602850349907256 0  3.527828882622877 1.432983527791925 0  1.959527908877504 -1.578124930685265 0  0.7602573574724077 1.220872343399509 0  0.6691217533356228 0.8531987603309893 0  1.877213035764122 -2.564340152892596 0  3.304349402914068 2.552016594979913 0  4.285565286275464 -1.569057178671076 0  4.227521511146333 -1.876903861267543 0  5.34375 1.40625 0  5.71875 1.59375 0  1.56245959534423 0.766197796710638 0  0.2458241530773257 2.4375 0  0.2794123857609179 2.138568368155198 0  5.754175846922674 -2.4375 0  5.720587614239082 -2.138568368155198 0  0.6472458227887359 2.124973059628837 0  5.124241021325378 -2.352544055105642 0  5.189172233440652 -2.675873509996353 0  5.364643151640443 -2.12768524739804 0  2.298896485720138 1.348573610321417 0  0.6008689899200503 -2.745193425346304 0  0.307092513690391 -2.651812055231556 0  0.2683745826107009 -2.363146293324415 0  0.5223214285714285 -2.165178571428571 0  0.5169611136983336 2.740349995819724 0  5.607469108596883 -2.699891746740618 0  2.138439274270545 1.947386893596098 0  1.25507379660067 1.953406658386351 0  4.135759889512124 -2.476847355718572 0  2.548249345531056 -1.538893887888457 0  2.771010284190282 -2.05339728351
[...]
<CellData  Scalars="f_26-2"> 
<DataArray  type="Float64"  Name="f_26-2"  format="ascii">2.5625671829852021e+29   -8.0484213660400967e+29   8.6577152794405420e+29   -3.1760352190470874e+29   -2.4831286689393147e+29   7.9835927034774776e+28   3.6746003281436895e+29   5.8759273891113569e+28   -1.4708474784156702e+30   1.9475288448864599e+27   -1.9126566985011574e+29   6.6112921508670110e+29   -1.0405826356707400e+30   6.7800996796096564e+29   1.3262316292395870e+30   -4.5497994071712163e+29   -5.2244873805067083e+29   4.7785277132024623e+29   -2.5204736486416398e+29   8.2948421159812604e+29   5.7655810738660290e+29   -3.2738461270408316e+29   -6.1869735211887710e+29   -8.7310112069758278e+29   -1.1947811094120478e+29   -6.8062901641855667e+29   -8.7018415869956768e+28   5.2322565774708566e+29   1.0132069605339540e+29   -6.9952241738837155e+29   -7.3263915703191271e+29   -1.6543919556398932e+30   -5.1135603234837245e+29   -1.0802516104728449e+30   -6.6548304620033714e+29   4.4590352000842230e+29   1.7945461446887373e+29   -8.9668569534610668e+28   -6.6890086696997856e+29   4.1237511858745336e+29   2.1473025174482876e+29   7.6780870075369212e+29   8.4940076335334921e+29   1.0996847436198624e+30   1.8352534937553939e+29   6.4588543035655521e+29   8.3604734299364099e+29   -1.0249307770005645e+30   9.2643841616526174e+29   8.7657813980584671e+29   8.0172569746700886e+29   3.2466195612559313e+28   -4.1752625052745556e+29   5.9463724776406301e+29   2.5062698785501280e+29   8.9625269724012766e+29   1.4654165363914204e+29   9.2279519853279437e+29   -1.2329153503587675e+30   -1.8177211318609134e+29   6.4801891356287473e+29   -1.3641957214765456e+30   -2.1483285634959012e+28   1.1921456592291796e+29   -6.3321843666276329e+29   -1.0441814276510214e+29   -1.9419659664771405e+30   -8.5842176743753443e+29   8.1135587303736917e+29   -6.3408218501939452e+29   5.8622886963273430e+29   1.4415734236693733e+28   -9.4118061256022742e+29   -6.6735152477844923e+29   1.2390912013594776e+29   -1.9624298678341510e+29   3.2462716960761808e+29   4.8684768776321192e+29   -1.8593328678564045e+29   -8.8759015647082769e+29   -2.3693562119705906e+29   -9.3864920949760511e+28   1.9467070323923182e+29   4.6566819206240336e+29   -6.3697149717915805e+29   1.5753388515063914e+30   -3.5543756683965587e+29   -4.5001237467176793e+29   6.0107298224320197e+29   6.8349443085603114e+29   -1.0055667941869332e+30   -3.0700081052942126e+29   -1.2491009737771721e+28   6.9841266734726289e+27   -3.0837975557463196e+29   -5.1071117294883304e+29   -6.8790569818632492e+29   7.9238796183970210e+29   4.4247458748576007e+29   -1.1623558750746073e+29   1.1475846740038399e+30   4.5955004712474862e+29   -8.6787444524106910e+28   5.5834168010207755e+28   -6.8085239948471441e+29   -1.6464157822581107e+30   -3.6711251204674665e+29   -2.9516816854395330e+29   1.7273325421373944e+29   1.8510750964731115e+29   -6.7290479009231345e+27   5.2671503071569109e+29   -2.5520854301091273e+29   1.3070155546609023e+29   -2.2103903437774378e+30   -7.6742891389889735e+29   7.9696663217948656e+28   1.8068931044631738e+29   -1.5269874148210091e+29   -1.2725032494154757e+30   5.0325990318619260e+29   -2.8297634351108847e+29   5.5060299084162378e+29   -3.0783187291664918e+29   -5.0946446449829005e+29   -8.3062479794804437e+29   6.1194520872283302e+29   -9.6150545820844051e+28   -1.6529406858789946e+30   -6.9906997460693927e+29   -4.3083154352468569e+29   -2.3576931610210263e+28   -1.0528856081459964e+30   -2.4019935646497490e+29   -5.6513410158515985e+29   -3.3002006110943938e+28   -4.0182163702264558e+29   9.6758877531559968e+27   -2.6162350136000423e+29   5.4789319101029538e+27   -2.3861724605085342e+29   4.2863400172298077e+29   1.2868442103008291e+30   1.9632082010644364e+29   -9.0906291653633938e+29   -1.6024790291285508e+29   6.7347278901445148e+29   -7.1486141737519602e+29   -6.5736464483957409e+29   3.6340462253032842e+29   -3.5422831666891048e+29   -1.4063052529608145e+29   4.1235614029332848e+29   1.6678099339298161e+29   4.4452475103401318e+29   3.6987264063431383e+29   8.3599683835780426e+29   -1.9952915041772749e+29   6.5170699076549631e+29   4.9327845250233768e+29   -1.3980098035411420e+29   1.3682495021874870e+30   1.2085499689061301e+30   -8.5224453105506902e+29   4.9358758742122940e+29   3.5573478583670133e+29   8.2321166354283351e+27   -6.9636442223457323e+29   -8.1983654532852847e+29   1.3285602632363500e+29   1.3196244015924797e+29   -3.5613281141970030e+29   -8.4077714607138139e+29   4.4120837750033728e+28   -4.6882550862225710e+29   -1.8601386665486584e+27   -1.7940384105785467e+30   -7.4990761192949483e+29   -7.7757945716185179e+29   1.7993105324687596e+29   4.3757717411349229e+29   -5.1746840669426578e+29   1.9753120832308871e+29   -3.8810980972498405e+29   -2.6935415757878737e+29   -2.6133390228024842e+29   -6.2271637748126039e+29   -6.3093604485087659e+28   -9.1019487306990340e+29   2.9775597191600913e+28   -1.9957960081890899e+29   -1.0241808435830759e+30   -1.1298022612096629e+30   1.0285170194755112e+30   3.5112880600374407e+29   8.2317288922550413e+29   -2.7226204426177447e+28   5.6073134146028796e+29   -6.4724913182776306e+29   -1.8329543005404546e+29   -7.7001474479147359e+29   -9.5195414455505266e+28   3.9942294918436622e+29   3.8124888744574068e+29   3.6464075158871492e+29   2.7255480164033525e+28   -1.6086476353223974e+30   -1.6730905127121011e+29   -1.5804707667954630e+30   -7.3462105744339093e+29   7.2749612319471940e+29   1.1755061484268959e+30   -3.6044642346015861e+28   -3.5480208356000561e+29   7.0436202535848557e+29   1.1496278030400940e+29   3.9823397991847285e+29   2.5223305494054694e+29   1.2278495290699318e+30   -4.6070419210087055e+29   -1.7852864576561049e+29   -1.2097474215395000e+30   -8.9579526776679203e+29   2.1511243681947585e+29   -1.7761918111981789e+27   3.6975537666028760e+29   5.2801877861597315e+29   3.2853960459856097e+29   -9.1006105540519941e+28   8.4121441721315730e+29   8.2254247778407798e+29   -8.6909722141972100e+29   -1.3500193471434548e+30   -5.2539508819688332e+29   -4.9314689409955272e+29   -4.2195688708002966e+29   6.5218150634763258e+29   3.8437537169896003e+29   -7.0157830249420058e+29   -3.4090338932788169e+29   -6.2063560581810447e+29   -1.1811138310624653e+29   4.5568712839620924e+29   2.9477952417989610e+29   -7.4829299386993811e+29   -7.3232242600818662e+27   -1.0462264337014288e+30   1.4155393281848630e+29   -2.9427244697433101e+29   9.8022796130075209e+28   -6.4652504445575591e+29   -1.0916411549531535e+30   5.3875120579115016e+28   6.3536561221288172e+29   -9.6134945564952149e+29   -7.8502061786720947e+29   6.4943441664391564e+28   -1.7357254026014044e+30   -4.9075030301481016e+29   -2.5175579896185403e+29   1.0619312087168404e+30   3.7149274388282676e+29   6.0674498006424403e+29   3.9662142526117698e+29   1.3003467015890151e+30   1.0497618804919221e+30   1.1005076263161353e+30   -5.2609316422632389e+29   -1.6119492077831953e+30   2.7620432397595201e+29   1.6257376336162558e+30   -7.1577030720965947e+29   -8.0790239050847398e+29   -4.3071548866994964e+29   -3.3164901453192864e+29   -5.9416149648320630e+29   -5.5079124995779581e+29   7.2156080044412501e+29   4.5207368848915738e+29   -9.3313173863734145e+28   1.8326660116006122e+29   -1.5551504485139509e+29   1.7846571280197391e+29   -1.0122580784028816e+30   -1.3126576657627089e+30   -3.3096300816137597e+29   -2.1284230434941503e+29   -6.3578401000170603e+29   4.4900930312436610e+28   -6.3641042543226273e+29   3.7246252165141238e+29   1.5151057420222693e+30   2.9032273454831202e+29   4.2479647080324841e+29   -1.3809861203305214e+30   -1.0746356097776206e+29   7.6138603828749714e+29   4.7819184060960330e+29   6.1508876774125993e+28   6.7970710334891244e+29   -2.2686988303441042e+30   1.5080584890555404e+30   -7.4019954474201441e+29   -2.6137547973849177e+29   -6.5898115246799083e+29   -7.7858758912181057e+29   -5.8327054740325133e+29   -2.2757174538659272e+29   -1.3277923126693070e+29   -3.8162504386764877e+29   2.5169757063025130e+29   -4.1378019019648108e+29   1.0445394900792740e+29   4.0128560763921882e+29   6.9438500505850493e+29   8.1347092771562388e+29   -3.3018101962626702e+29   -1.0201984545891182e+29   -1.1270846069080291e+29   5.7308316978432504e+29   -1.3935910473466342e+29   -5.5313160646025994e+29   8.7728654975158578e+29   -4.7206089535546565e+28   -8.7197849247609658e+29   2.3778987972654114e+29   -9.8352260055427798e+29   -5.4065424477409287e+29   -1.3916163021766351e+30   2.5614938295887331e+29   3.2225356760101812e+29   7.1891952822349515e+29   1.3029131782490269e+30   3.6530938871776765e+28   -1.3947345505956964e+29   2.6022620081111718e+29   -1.0718322847535584e+30   6.0526009588437096e+29   -1.3616462700086513e+29   1.5481598086744769e+27   2.0334349852170977e+29   2.5770573700577436e+29   5.1916348509557365e+29   1.4061484325423376e+29   9.4021567358181474e+29   -1.4856218593309245e+30   -9.2551585671315016e+29   -7.9042574820126821e+29   -3.4318403968772293e+29   -2.6198373344374957e+29   -6.6229325995334427e+28   -2.0271873812127686e+29   1.0615513808010469e+29   -4.0208074466750244e+29   -2.8554061488367100e+29   6.6140009683501016e+29   3.7180745592137598e+29   -5.0890719230106976e+28   1.3806565763637430e+30   4.7191588018116145e+29   8.2034536377680188e+29   -1.5685067841557070e+29   4.2974472506551939e+29   3.4072406096932006e+29   -1.0427595047699926e+29   -4.8260856315233593e+29   -3.3227584736853747e+29   2.1838766734655846e+29   1.0984841498647907e+29   8.7053207364225897e+26   -6.4384769093597875e+29   1.2486029814690182e+30   9.3146887235196323e+28   -1.5089867954124105e+28   5.1151009066527158e+29   -9.8901322273215342e+29   -2.0711981388747807e+30   -7.0026803831860304e+28   -1.3505477682692143e+29   3.0904335752797105e+29   8.8737662041372609e+29   1.2499351307705264e+30   9.3792419269978553e+29   3.8170387925262210e+29   2.1794831667650243e+29   -7.3900153496638551e+29   2.6002104512804635e+29   -1.8342513069451737e+29   1.8006104146743196e+29   5.8245322732676374e+28   -3.3394560709486922e+27   -2.5085480594883310e+29   1.0862039637006790e+30   -3.4428514868472076e+29   -1.6375651191559318e+29   -4.5825908080199889e+29   -1.1008652087011037e+30   -6.7816864691731355e+29   2.3304935349328059e+29   5.1891890237585582e+29   8.6393930050391505e+29   2.5613103667347341e+29   -2.3836088676785999e+29   -6.2860688022113532e+29   6.6496429777749344e+29   -1.6243694311158600e+29   3.4850070904572727e+29   -1.0977497346317432e+30   -8.2845926468775219e+29   -6.7020087826061775e+28   3.8832632463964625e+29   -6.5995154678600705e+29   -1.6964265419463108e+30   4.7732936381826860e+29   1.3302685997835033e+29   3.2028379491440410e+29   -3.0822435983202239e+29   -5.1876720048104482e+29   2.2088789372342569e+29   -5.3278170156281596e+29   5.5643085535278881e+29   -6.1567609194598146e+29   -2.8505523553956595e+29   -6.8094566694858511e+29   4.5471544165061284e+29   8.0297984447633269e+29   8.3986094844414198e+29   -2.8576776773290969e+28   -6.7331514329469660e+29   -9.7403443098053877e+29   -4.5582483818214833e+29   -5.7531795525010788e+29   -3.0819954475309151e+29   -6.4228669006616142e+29   -1.2498740868127149e+30   6.7354896279713290e+28   -2.4449756987397602e+29   -1.9794891849923618e+30   -1.7362324854817505e+30   -3.8378923669279354e+29   -9.8201295979761030e+29   -1.4196892391838117e+30   -3.1875440735885030e+29   -1.1590919389499660e+29   -1.4893583202973610e+30   9.1824281278999787e+29   1.2222310116038150e+29   2.4584964311880839e+29   -1.1248908919258499e+30   5.9275146505163015e+29   -2.4898165957569687e+29   7.2137162783033070e+28   1.9047080533445898e+28   -6.7823839076631411e+29   9.2519627459868866e+28   1.6264337785213259e+29   -1.7860577300663417e+29   -4.8888141846483399e+29   -8.7984916379170943e+29   7.9528675851027481e+29   6.8306639130879024e+28   -1.2794606397892635e+29   1.0522093411026795e+30   6.4708484104600421e+29   -8.4024631675352661e+28   3.5847834090811483e+29   5.5965646399723673e+29   1.5882370581795998e+29   -2.9929313376474669e+29   -1.0380879238077877e+29   -4.0572652218598062e+29   8.6922195359030602e+28   9.7446684683148182e+27   -5.7990908415223913e+29   -2.8814002107537215e+29   -8.2942951880597297e+29   -1.1286994744941430e+30   -7.9765621730583096e+29   -2.1045248111048043e+29   -7.6844048405753391e+29   -1.0725351147428710e+30   6.0538429624195823e+28   4.7975692126483536e+29   6.0065431552679214e+28   2.4615615573254673e+29   -1.1771041287833559e+29   -3.0490334727655474e+29   2.9317784927538241e+29   -1.0102049492752773e+30   -5.0396585794251722e+29   -5.3628614183438193e+29   -4.3401395145693343e+29   -1.2586007496060639e+30   -6.1013847497031566e+29   -2.8580946267474742e+29   -5.3457633292662809e+29   -5.4358244996372453e+29   -3.2274509303895837e+29   -1.0282400926937528e+30   -1.4306595554915551e+30   -1.1585709390675973e+30   -3.9606942830205906e+29   -4.3040804570385272e+29   1.5415646725258594e+29   2.3340120024055443e+29   -2.3242248709523016e+30   -6.9270376869578976e+29   -1.0524594699452233e+30   -2.1559243175721074e+30   4.7490466365481496e+28   7.0442473216994250e+29   -1.3825559037505999e+29   -2.6372160373759203e+29   -2.4655333533229840e+29   6.6731641112298259e+29   -7.0372691134043717e+29   1.9629532800869213e+29   2.1963953331651456e+29   7.1758866655440228e+29   1.5903613189814319e+29   -9.4076722488941859e+29   -2.7780397094122945e+29   -7.5547200875330262e+29   -6.7644195712205606e+29   -7.3487532734380927e+29   -6.8856500827138780e+29   6.0518195474066213e+29   -1.2429326629369387e+30   -3.8400163255047062e+27   6.4688828345812979e+29   1.1339446171084492e+30   8.9654889688310896e+29   -9.3257442536549566e+27   3.1218115031046500e+29   -9.7844145490413901e+28   -8.9180073730185573e+29   -9.9351821936879014e+29   -9.4156878225241793e+29   -2.2504545703499538e+30   -8.6994583506481227e+29   -1.8693831340306154e+29   2.0019158669896605e+30   -3.0723243446886290e+29   -8.0940226182802441e+28   -1.0953811930571485e+29   -6.7998451044558797e+29   -1.2224299035011849e+30   -3.1159069864467658e+30   -5.8712398289559565e+29   -8.6244061659289691e+28   4.7863833993716192e+29   -5.6988040684561858e+29   -1.8955434958875720e+30   -1.2850670255982505e+30   5.1972471020794154e+29   3.7233646666007180e+29   -3.6246799566291471e+29   -1.5904038201769669e+29   -1.0571425273742150e+30   -1.1174548995229063e+30   4.8983563259672593e+29   7.4567440967506922e+29   9.7843224919752105e+29   1.2944493290417751e+30   -5.6638041272582126e+29   -1.1489314511805754e+30   -5.8310365426419293e+29   4.9637926029100809e+29   1.9444297092470337e+29   -7.2449735228209325e+29   -1.2356901654966509e+30   -7.6207132903964621e+29   1.2305697111226878e+30   1.4842977502541065e+30   1.1088040168584064e+30   6.8840677730761849e+29   -7.6118067537025657e+28   -6.4352900875829109e+28   -5.1684561264133719e+29   -6.3402778225998689e+29   -1.5171194635595648e+30   -1.2479168832351148e+30   -1.1516340790794180e+30   -1.2272912756930098e+30   1.4992491602823870e+30   5.5903051061854324e+29   -3.0584249939479634e+29   -2.0290134932274692e+29   5.3566311924724832e+29   1.3323075738138047e+30   -6.5341891521586307e+29   4.0120176859594597e+29   1.4569179050410463e+29   1.0462873880340646e+30   -5.5430612105496816e+29   -5.9017808695454604e+28   8.8632860251027190e+28   -1.0129014440659729e+30   -7.2393545957898961e+29   -7.3831501641457367e+27   1.5444417966901451e+29   3.5153925800693352e+29   -7.9517475825934033e+28   -2.0041484019480798e+29   8.1534468137244913e+29   1.3950465555787281e+29   9.0440313603818159e+29   1.1874941757752204e+30   3.3321201588382426e+29   2.1948798249382913e+29   -9.8580333013445378e+29   -3.7695388209210827e+29   -9.6623897705637673e+29   -2.2183256700879660e+30   3.1936586455096075e+28   9.7236889965238628e+28   -8.9722727786193350e+29   -4.6957228324492020e+29   6.5481263135750969e+29   1.2154422819474812e+30   -1.0510715131981230e+30   -8.3826139933465319e+29   3.9396085035517805e+29   -9.3380455867847299e+29   6.1691181550467033e+29   -5.1091405966263525e+29   1.1703629234101271e+30   2.0548134803252653e+30   5.6958843034991369e+29   3.3345013660129112e+27   -4.4149305617663274e+27   -8.1181963260539529e+29   1.3937903629463903e+29   1.2719293225524709e+30   1.0104661541481846e+30   -5.1192881135788886e+29   1.2740117516368168e+28   3.0474534454216150e+29   -1.5666608953792414e+29   1.8283798904991344e+30   -4.4583771622455938e+28   7.7703809603528013e+29   6.1701182172446264e+29   -3.4413024987130209e+29   3.1986588147870196e+29   3.0716817865272507e+29   -3.0778194667676587e+29   -1.6747740461282868e+28   -5.8871461187674766e+29   -6.9665952106298233e+29   -5.0539953112603535e+28   -3.4307862465891784e+29   -3.1148058327171635e+27   5.2842212849106971e+29   7.4748254194223474e+29   1.8088495619746265e+30   3.9361332532383592e+29   1.1664683663280084e+30   -2.5483977838241015e+29   2.8393077305079964e+29   -2.4871161861033493e+29   -8.9115676580299210e+29   -1.1359411844935193e+30   -8.0122977273194736e+29   -1.1742601037226495e+30   -9.2652381204312954e+28   -2.2436223682290946e+29   2.0012505965234273e+29   7.2404084227555239e+29   -1.4219405278586154e+28   4.6815446139930409e+29   1.1585106096124190e+30   -9.7608504188606232e+29   -4.5484040677047838e+29   7.6842623018631157e+29   4.8698777999865039e+29   -2.0388159163296440e+29   9.9768310529146799e+28   9.2337367180963278e+28   5.2228145387521466e+29   -4.3837129271508572e+28   -2.5283049110290456e+29   -1.9191816748520772e+29   -2.5109353091620040e+29   -2.4949078388628889e+29   7.9614732237148449e+29   -9.3668706869412223e+29   -6.1963776888724901e+29   3.8390445477082656e+29   -4.2305363145139674e+29   -2.1668680288790539e+29   4.0197222606410744e+29   2.4912538598342522e+29   8.0749543664703548e+28   -4.4277190284357090e+29   -8.2482678946316523e+29   3.7889788901667933e+29   -4.4645725366952786e+29   -3.6788050643554372e+28   -2.1130060968451267e+29   4.0084947225410533e+27   -5.8326939882467537e+29   1.1559071910137573e+30   1.1067106760602001e+30   -8.3010624564340059e+29   -8.0497968402763275e+29   6.0159545288778839e+28   3.3116095783069880e+29   -4.6679170681242851e+29   2.9871955637831423e+29   -1.3529670050741665e+30   -4.7312473094308902e+29   -3.5085782899468883e+29   -1.5116828668555121e+29   2.1196281039955173e+29   3.0077417644400522e+29   -4.6306978355492576e+29   -6.6155793308482479e+29   -1.2113802846809765e+29   -1.1636459442922648e+30   6.4682471436984577e+29   6.5107204677632840e+29   -9.7618625928403271e+29   -7.5228693569098551e+29   -8.1409497729309069e+29   -8.1537838693214622e+29   -8.5030884100094552e+28   -3.1668092527318187e+29   -1.1238298139789325e+30   -1.6803273521578525e+30   -2.5612373093476609e+29   -5.4753733603789351e+29   2.6599368588838386e+29   -2.1804785645066614e+29   1.8645799387708900e+29   1.0894352521566382e+30   -2.2008403797022148e+30   -1.1435402167697541e+30   -7.1960082723491357e+29   -3.6455877074862121e+29   -8.2277079463579128e+29   -3.2933923519076032e+29   -1.6993982816572233e+29   -5.6593983738513859e+29   9.5211429955398547e+28   -5.3380427128439393e+29   6.1131326161504997e+29   7.5420897807111593e+28   -3.8907593367749332e+29   -5.9761421901723395e+29   -9.4793436774545927e+29   -8.5420377199033363e+29   -6.8065867036132206e+29   9.2606818907744402e+29   4.6103982761015098e+29   1.4181390241889628e+29   -1.5551368816892081e+30   -9.1806183921329549e+29   2.0109482498507811e+29   1.7532187255660891e+29   -5.3887135185918710e+29   -8.9628959094611898e+28   5.2628701281084767e+29   8.4864655255638466e+29   -6.1786979473187563e+29   -6.0644639281662676e+29   -1.1286275766243018e+30   -1.4210730699111305e+30   -6.7335582622779038e+29   -6.2359403360948861e+29   -9.3283091993835169e+29   -5.9443152797394950e+29   -8.0009699504153135e+29   -1.6375869755868137e+29   -4.5766513797817888e+29   -3.7671167516216788e+29   4.9953575921485528e+29   8.9236160013827667e+29   1.912093420996100