<?xml version="1.0"?>
<VTKFile type="UnstructuredGrid"  version="0.1"  >
<UnstructuredGrid>
<Piece  NumberOfPoints="387" NumberOfCells="708">
<Points>
<DataArray  type="Float64"  NumberOfComponents="3"  format="ascii">0 3 0  0 -3 0  6 -3 0  6 3 0  3 -3 0  6 0 0  3 3 0  0 0 0  3 0 0  0 -1.5 0  1.5 -3 0  1.5 3 0  0 1.5 0  6 -1.5 0  4.5 -3 0  6 1.5 0  4.5 3 0  4.25 -1.25 0  1.75 1.25 0  2.25 -1.5 0  4.5 0.75 0  1.541666666666667 -0.2083333333333333 0  3.219827586206896 1.521551724137931 0  1.125 -1.875 0  4.875 1.875 0  0.8702651515151515 0.631628787878788 0  2.25 2.214285714285714 0  3.316176470588236 -1.904411764705882 0  5.214285714285714 -0.75 0  5.03125 -2.03125 0  0.96875 2.03125 0  4.041666666666667 -0.2083333333333333 0  0.8205128205128206 -0.9134615384615387 0  3.942582294752138 2.189194098250713 0  3.061487638533674 -0.968243819266837 0  2.192708333333333 0.4427083333333334 0  4.157850026972511 -2.182329047049442 0  2.331456616463011 -0.5285296485744057 0  3.654761904761905 0.5654761904761902 0  5.25 1.125 0  2.563673341677096 -2.280663329161452 0  5.126674107142857 0.1283482142857142 0  0.75 -3 0  0 -2.25 0  6 2.25 0  5.25 3 0  0.7680051888903191 -0.1384245958639337 0  1.617229471026718 -1.006949429867069 0  4.218940341429579 1.468686552856807 0  3.75 -3 0  2.25 -3 0  0.75 3 0  5.25 -3 0  6 -0.75 0  0 -0.75 0  0 0.75 0  2.25 3 0  6 -2.25 0  0 2.25 0  3.75 3 0  6 0.75 0  1.787573018358365 -2.279142327213878 0  3.195025188237337 2.273430909158844 0  2.528159645294386 1.151699106559287 0  1.041598427383826 1.322848427383826 0  1.520951704545454 0.4634232954545453 0  1.580357142857143 2.325892857142857 0  4.919642857142857 -1.361607142857143 0  4.54981623521892 -0.6483700862895494 0  2.99317863826574 0.6697091957925523 0  3.450169349029507 -0.4574865881858001 0  3.605016126014028 -1.323102984840902 0  2.745144658907412 1.882241931337371 0  0.4898065586600511 1.092777516238393 0  0.5 -1.875 0  1.217028489597945 -2.469323836800685 0  1.659912685567181 -1.604738056701542 0  5.4375 1.6875 0  5.34375 2.34375 0  4.52741779500503 2.384139265001677 0  3.375 -2.514804579549941 0  0.5446428571428571 -2.455357142857143 0  2.766554087216865 -1.745795909102064 0  4.525516559010988 0.1490283123570637 0  3.87554132162248 -0.8280516069565407 0  4.53622906132958 -1.76963146596888 0  0.4243951612903226 1.875 0  0.554851858345021 2.446861709948876 0  5.575604838709677 -1.875 0  5.445148141654979 -2.446861709948876 0  4.875 -2.575604838709677 0  1.440573466105381 1.721823466105381 0  2.193519495405082 1.631799415080963 0  5.472630128027442 -1.330813078900983 0  4.750126894286386 1.343813447143193 0  5.607142857142857 -0.375 0  2.625 2.607142857142857 0  0.3921763197810531 0.375 0  5.60901753622775 0.3750000000000001 0  1.125 2.613454943235572 0  3.701856738980915 1.163867513386733 0  3.736112850688509 1.696746876851408 0  3.519183195491339 0.06065128742606851 0  3.973620778217027 -1.693401606145563 0  0.8125 -1.444978632478633 0  1.256657745408029 -0.6381828923025001 0  0 -1.125 0  5.019997778514942 0.6475044429701156 0  4.125 3 0  1.285569332703024 0.8955310332120207 0  0 -0.375 0  0.4638922275641027 -0.5625 0  2.056635259780241 -0.07226025978024064 0  2.130475508371123 -1.000827820434028 0  2.677484372338113 -1.267299126394495 0  2.848680878891876 -0.4956836878192376 0  4.937901885089369 -0.3340245904575954 0  4.393563081308854 1.919544166973803 0  4.053859126323572 0.2813938488760716 0  1.181051704329518 0.1167440895674965 0  1.971354166666667 2.607142857142857 0  4.875 3 0  2.519350561152006 0.08093582719875507 0  3.139443301924015 -1.442524927271905 0  6 2.625 0  1.849169256239503 1.945480934753207 0  1.867196483071171 0.7892354369530077 0  1.192506522009051 -1.184888428863342 0  3.375 3 0  3.603234392481833 2.536866305538572 0  3.846752908916648 -2.537707634073423 0  2.014339897513945 -1.886932065281681 0  4.038392037966526 0.8363324773944992 0  4.421242701722609 -2.552534687860327 0  3.715389848650903 -2.108856956172843 0  2.985668138820625 1.127780908772207 0  0.4500794934449803 -1.173696061598557 0  3.366760888116476 0.8891914618875614 0  1.869163043700093 -0.6107175804171328 0  2.175114838273305 -2.53928723780967 0  3.014417665538299 -2.241523065744933 0  2.625 -3 0  2.819968145332426 -2.617202329573456 0  5.625 1.3125 0  5.563263538826679 0.814027077653358 0  5.625 3 0  2.550041671270923 0.7074928970804664 0  4.014583091741168 2.59891853892166 0  0.6440729668673318 1.499523832583132 0  5.219449799568244 -1.660557808485412 0  3.474012636702472 -0.9300738420779746 0  0.8125 -2.142857142857143 0  1.875 -3 0  4.945010515846405 2.554471797033147 0  2.611388969012422 -0.8478354915063726 0  3.223746055611014 0.3371683159691745 0  4.843939757110898 -0.9483610977948225 0  4.66556954816842 -2.220888354477256 0  4.125 -3 0  4.448108395110625 -0.2524000502731018 0  5.63671875 2.05078125 0  2.822484133964224 1.491327727709286 0  3.378213092764193 1.903125093887009 0  5.607142857142858 -0.9231200445788541 0  2.12639693023183 1.100450516019641 0  5.625 -3 0  0.375 3 0  0 2.625 0  6 -2.625 0  0.3931307155906299 -0.01856779822591927 0  0.7651723094668359 0.253768144801553 0  0.8549199714190221 -0.5218333744252657 0  1.421989550604507 -2.133299471886336 0  1.582611957351803 -2.615166692128227 0  4.420331038793115 1.133144382396504 0  0.375 -3 0  0 -2.625 0  5.078156723571596 1.54697017071479 0  1.877250715260938 -1.288801575378032 0  2.409169073010687 -1.916147168931784 0  1.146151077069952 -0.268000681695328 0  1.726784828652036 0.1335728643263411 0  2.745628549924675 0.3838821021397905 0  3.011490900297165 2.613625569196862 0  5.62463365164608 -4.137655439684362e-05 0  1.875 3 0  1.125 3 0  6 0.375 0  2.625 3 0  6 -1.125 0  6 -0.375 0  4.875 -3 0  6 -1.875 0  3.375 -3 0  1.125 -3 0  0 -1.875 0  0 0.375 0  0 1.125 0  0 1.875 0  6 1.125 0  6 1.875 0  4.813017731148975 0.9677363687196439 0  2.807371623148303 2.264962208227767 0  0.3692953377255688 0.7436406761680247 0  5.615625 2.615625 0  0.9395725521479794 0.9812935874921043 0  1.390920759130215 1.238984550166515 0  0.9588795022085095 1.672288500195331 0  0.87712392565124 -2.641031728267331 0  0.3665732993114588 -1.532068934251388 0  1.841944504733106 1.591700334213738 0  4.832970185136452 0.3385359233091246 0  4.169083540479082 -0.5746148619765254 0  5.281697083409333 -0.2046640461936881 0  4.072845380968044 1.784516523483641 0  1.293029195762321 -1.543079049035419 0  4.878733886054284 -1.720697370582964 0  3.609167475697567 -1.687579152754035 0  4.836981942878573 2.222259978217028 0  4.204938267037067 -0.9128589669335569 0  5.183079748175263 -1.111742407358677 0  1.22880920402559 2.273525645756405 0  1.469404041858679 2.654509729682302 0  4.566761045622856 -1.414165869120005 0  4.531680518427715 1.606803989975667 0  1.918929241273175 2.27471131819245 0  3.526908551984126 2.207147627530056 0  1.85683899811842 0.4533569963423589 0  1.173935704088662 0.4636872214645547 0  2.116602160898525 -2.207718541460878 0  4.51821874648995 -1.042568353750147 0  2.721551512787618 -0.1859357475290837 0  5.294921875 2.001953125 0  5.288671874999999 2.670703125 0  2.199940744527116 0.7756512213396931 0  4.090519467638897 1.163401080812838 0  2.298177083333333 2.670581371753247 0  2.484362362207526 -2.687319997637033 0  3.300530569898859 1.207053005217563 0  3.936078051808127 -1.362164062673065 0  5.341218841330105 0.5689885832563615 0  4.226314635599414 0.5638853401248238 0  2.524510956818563 1.635483567726497 0  0.3219546452225031 1.389066019009203 0  3.139061555368706 -0.3133905221155423 0  3.145569907612562 -0.6461828528638952 0  3.701427442033566 -0.2272880199383185 0  1.686782510365738 -1.934662341426927 0  2.427696494631844 1.944064773844184 0  3.901817839425732 1.422433381251312 0  2.356489883772755 -0.2025512972825912 0  4.820757576351118 -0.01647699434507374 0  3.064415631228375 1.809719380809516 0  4.643002705009462 2.69782572459795 0  4.31624250429496 2.728112685900672 0  1.520100694408069 -1.314302747998057 0  3.754559308601717 -0.5375020107416889 0  0.25 -2.0625 0  0.8125 -1.826636904761905 0  4.861738621091127 -0.6367294570749906 0  1.545149590740081 2.015832101819233 0  3.857113324620078 0.04127675193819436 0  0.2479605082936806 -0.9375 0  4.21293081604216 2.352874368135467 0  3.123697687162562 -2.708090473740421 0  3.415275466010259 -2.202892416689829 0  3.601103065320932 -2.727566580522146 0  1.558629964945672 -0.5289921609136927 0  3.324859026263307 -1.198136798699183 0  2.424350759683917 -1.092246517929194 0  2.746461744851735 0.9398108087856579 0  0.8882026075771248 2.364936378889839 0  0.8066140242673685 2.679750706449505 0  4.504454978490482 0.4491616076730165 0  4.26881784709759 -0.009649566552704852 0  1.3125 -2.75919801263958 0  1.120577805361368 -2.179971784090952 0  3.734048623985226 0.8602850349907256 0  3.527828882622877 1.432983527791925 0  1.959527908877504 -1.578124930685265 0  0.7602573574724077 1.220872343399509 0  0.6691217533356228 0.8531987603309893 0  1.877213035764122 -2.564340152892596 0  3.32172153715047 2.685939810104955 0  4.285565286275464 -1.569057178671076 0  4.227521511146333 -1.876903861267543 0  5.34375 1.40625 0  5.71875 1.59375 0  1.56245959534423 0.766197796710638 0  0.2458241530773257 2.4375 0  0.2794123857609179 2.138568368155198 0  5.754175846922674 -2.4375 0  5.720587614239082 -2.138568368155198 0  0.6472458227887359 2.124973059628837 0  5.124241021325378 -2.352544055105642 0  5.189172233440652 -2.675873509996353 0  5.364643151640443 -2.12768524739804 0  2.298896485720138 1.348573610321417 0  0.6008689899200503 -2.745193425346304 0  0.307092513690391 -2.651812055231556 0  0.2683745826107009 -2.363146293324415 0  0.5223214285714285 -2.165178571428571 0  0.3925308914031174 2.699891746740618 0  5.607469108596883 -2.699891746740618 0  2.138365140930822 1.917102089073091 0  1.25507379660067 1.953406658386351 0  4.135759889512124 -2.476847355718572 0  0.5330865684534913 -0.8980875812659357 0  2.548249345531056 -1.538893887888457 0  2.67686064875775
[...]
<CellData  Scalars="f_26-2"> 
<DataArray  type="Float64"  Name="f_26-2"  format="ascii">1.6086058443557227e+49   1.0300077872928788e+50   9.3980875090532782e+49   2.2655814940090535e+50   4.9454102361093399e+49   7.8073144920730180e+49   -3.8618656049624639e+49   2.6538712734681853e+49   -9.9475385106824092e+47   2.3833288362196676e+48   4.1386315779267683e+49   -8.7738182628714074e+49   -3.4365046008581080e+49   -7.9600925088973552e+49   -5.8755873884567923e+47   -2.0078084923086450e+49   -7.1841608677154465e+49   1.0362330133405043e+49   -1.6439481476503451e+49   -5.0094634736323987e+48   6.3363159167773726e+48   -2.7930264525788229e+49   -2.4232101014582798e+49   7.8807818992909452e+48   2.0082273110134313e+49   -7.9969351162808625e+48   1.2862735999711900e+50   1.7405422718212107e+49   2.2493407851217555e+49   -2.5276495057668611e+48   7.4715782062343915e+48   -4.3391641725989422e+49   -1.0616197373011333e+47   -7.9804500005449064e+49   5.9088334958411176e+49   5.5716063401700712e+49   -1.7269161605297521e+48   4.9314207619062393e+48   -6.3711883686009887e+49   1.4958757482303979e+49   2.9140145173739934e+49   -1.4635136229466484e+48   -4.2242786949791170e+49   -4.5619670355803735e+49   -1.3800670813636211e+50   -6.2540445873930935e+49   -5.5235510210722873e+49   -1.7377656676042602e+51   9.5260141262391119e+49   -7.8515871127001616e+49   8.3094350992020210e+49   -1.2805714710161757e+50   7.4556846383392581e+49   1.4760445224955582e+49   6.1318631475384625e+49   5.4146119975558405e+49   -9.8097128533500030e+49   -4.4495914159693701e+49   -2.5397791842302593e+48   -3.0527059906334814e+48   4.4396925851919334e+48   7.0077447612633762e+48   -4.2977189796183614e+48   -1.5047758687905962e+49   2.9695006371800575e+50   -5.5125451395227710e+50   3.9599675531485362e+48   -2.2273040062038531e+50   -1.2426987859255300e+49   3.2451352914283970e+49   -1.5587841673693523e+49   -6.1333519963508238e+49   2.0461388302852342e+49   2.4077239704665841e+49   -1.1032884770872750e+49   -3.1623572500214125e+49   7.9665087471666852e+49   4.7556599356508476e+48   -2.6511249384312015e+49   -5.3329254853581909e+47   -5.3735766996651137e+48   -3.0250433786499244e+48   -5.8961158051664677e+48   1.2549575524779446e+49   1.0705569306176518e+49   2.0582972713177796e+49   -7.9141480223239746e+48   1.6823613374025730e+48   -1.1084351265213154e+49   -2.0577649596217380e+49   5.1910168083910531e+48   -3.9690318494541163e+49   -1.5051077636441096e+49   3.4146345061455256e+48   9.9574376572661776e+48   8.4731980125122461e+48   -1.6956472825825811e+49   -2.4185830498889247e+49   -1.3286797686881277e+51   5.8890545484915390e+49   5.4006326325110356e+49   1.7090360576083035e+50   5.9913946911694080e+49   8.0183795858747466e+49   -2.3892345784012291e+49   -1.2092818576918781e+50   2.0968532735795481e+51   -3.2643470351894761e+49   -5.1012534292458344e+49   2.2967587668049911e+49   3.6853881758712131e+49   -3.7071784673926289e+49   -3.1176346446208430e+49   -1.0049908488917194e+49   -7.5800489881953298e+48   2.3321815328250769e+48   1.4758753189548191e+48   -1.9445986257015835e+49   -4.6734820891556707e+48   3.9938220438774798e+48   1.6709798329463326e+49   -1.6218824061657741e+48   -2.4619087726344207e+49   4.0641797318883222e+48   1.1481782516111531e+48   -1.6791647343574860e+48   -3.3465790664536379e+48   3.4610767681858080e+50   -4.6617939770963527e+47   -5.8294345376577581e+49   -1.1152283774153177e+50   2.7265587419700494e+49   2.1694042115025846e+50   -1.5036619149783582e+49   -2.1511425264445463e+49   -2.6231967408021167e+49   4.8236229756720000e+50   1.5297657607094912e+50   -2.5885192100029011e+49   -4.2772838123723089e+49   -3.6259415945175498e+49   -4.1345526814988733e+49   -2.9215812345926353e+49   -1.1175912355556858e+49   3.5937687288020918e+48   -7.7830565448280995e+47   1.0527607872999317e+50   5.0953023340859849e+49   1.3523646548634205e+48   5.1548795057833172e+49   -5.3784150194459279e+49   -1.4043569768620405e+50   -3.1763838504964645e+49   -5.1360484144356820e+49   1.0248257265757013e+48   -3.9516540747617884e+48   1.4818384324967313e+49   1.7198089172976394e+48   -6.6070236844447083e+50   -1.0064675126374026e+50   -9.7455328305612135e+50   3.3962103509100363e+49   1.8132159988190364e+49   2.5121334170059048e+49   2.7711266675484399e+49   2.3303818704189256e+49   2.0669743758239671e+49   3.5197469974519098e+49   7.8773709695330873e+48   4.1574246803595604e+48   -2.0442673638188300e+49   -2.6030518558187317e+49   -1.2264011779538151e+50   -1.2999019490291776e+50   -2.5028023204051529e+49   -1.3645982412219734e+49   2.9998701441166983e+49   4.9352552830166341e+49   3.4154244381630416e+49   1.6963525425587380e+50   9.7849742441759553e+50   1.6557076941990259e+50   2.6061894097623785e+48   -4.5777479641580634e+48   5.6934592994247626e+48   1.6322441808043642e+49   3.5401626314255017e+49   -9.5216127001402737e+49   -7.2165362142611733e+48   -1.8580069983466059e+48   -1.1003971219140154e+49   -1.0318107006949341e+48   5.9820016142403924e+49   7.0295799334439200e+49   4.2264866804561713e+49   5.4201800004038797e+49   6.9953775275259868e+50   1.2118704718473086e+50   4.8984319816198122e+48   4.3656213929810522e+49   4.6138378456729294e+49   -4.2068193192710055e+49   -4.9749569295110966e+49   -5.4598135112214188e+49   -3.0850187995016085e+49   2.7368382991559515e+48   6.3586496575874246e+48   -2.1825199141619819e+49   -1.4974557948613223e+49   2.6245879431796495e+49   5.5370429888550310e+49   -1.9839738455841910e+49   -1.9187159621322726e+49   2.4631785759864197e+49   3.3608586014512837e+49   -1.2411849561457445e+49   2.1448550023706224e+49   1.6013039509189833e+49   -6.0228089941186617e+49   -3.8757717582439900e+49   -3.0893606642034535e+50   -4.9025473787877640e+50   1.1147448546369585e+51   8.9715620041584108e+50   -1.1265326077723741e+49   1.4381919090267375e+51   1.4611669597353622e+51   -1.5038451428260290e+48   -6.5981737125737376e+48   1.3066025383372998e+51   6.3640928904691689e+50   -1.8798995692239266e+49   4.9561700885702638e+48   2.9540523464136815e+47   2.6351774750002013e+48   1.1758477579288069e+49   1.2888814652033410e+49   1.9845727140371764e+50   -3.0738370004483642e+49   -7.5656169433509863e+50   -1.3897641594402320e+51   -1.6272312109623704e+50   -1.7975027096804593e+50   4.2497291390965416e+49   3.2594201487461315e+49   -1.5126880560791675e+49   1.4400143478782686e+48   -1.4853691192242780e+48   -9.3556246029793759e+48   -2.0274657106164748e+48   7.0317582474288090e+47   -2.2197964465429760e+50   -2.2876996303370673e+49   -2.2639229307614423e+49   -8.8553197244722886e+48   1.1959691800360895e+51   -5.3935125917634824e+48   -1.5503193523665092e+49   -1.8315906520341170e+49   -2.8992961745039671e+49   1.3095449784429816e+49   -1.7054783200703834e+49   -8.2751566427703277e+48   2.8467024170114098e+48   -3.6915780056577799e+49   -8.9077279382356373e+49   -1.5233005839272344e+49   6.5089161887149184e+49   -1.3364992822994677e+49   -2.1643146234952912e+49   -2.7371137931591931e+49   6.2587639858419960e+48   -3.4818622391096313e+50   -1.1046965736722931e+49   1.9337565306848937e+49   1.6182616967913730e+49   -1.1639071124754053e+50   3.4101155758007556e+49   9.6994141065555265e+49   1.3387012843847573e+50   -3.5485518511666897e+50   -2.6155593630680321e+49   -5.5829037904802260e+49   -5.4127236409902422e+49   -3.1507553349363310e+51   -1.3749199715205096e+51   -3.0647806343078084e+51   -1.8131818232730454e+50   -4.4927167374892957e+49   -1.6341468670633979e+50   6.8122049724357160e+49   9.3228105887998746e+49   2.5277315995679637e+49   1.9865403175581201e+49   3.8976008340191798e+49   1.9042053086562555e+49   1.9236634509507517e+49   2.5109307090741425e+49   -3.3282459728872121e+48   -7.7921857061412828e+48   5.3507680809973156e+50   2.4189529994455800e+50   5.4167079227543032e+48   6.6655438806832421e+50   4.2734739841366684e+49   2.7243487128735778e+50   4.8959624097348578e+49   6.6612199744085119e+49   3.4024048098454342e+50   9.1231956240044854e+50   2.7095429157170199e+49   5.2513890975667731e+50   5.2091968728350911e+49   1.3685026271531139e+50   2.7088104597351366e+50   2.3405910948969027e+50   -6.2137156589435449e+49   -4.2117309622859077e+50   2.3516032199673795e+49   4.0322176904591758e+49   -6.2550463895498939e+48   -2.7994779249785888e+50   -1.3610521542669829e+50   -2.5653409346811167e+51   -5.3061333071358719e+50   -6.1692387374777192e+50   -5.9186910033043031e+50   -7.6408535860152957e+49   -1.5162409736713430e+49   -1.5525094529906946e+50   -2.8956039267154965e+49   -5.0290917685306072e+49   4.9828592890165300e+50   1.1793329211605935e+51   1.1499589124567617e+51   5.7606259172974972e+50   -7.5947449036677559e+49   -6.3874801993912166e+49   -1.2860677339563648e+49   -1.1624827352934203e+49   -4.2695592249904691e+50   -1.9977523607789382e+50   1.7147005621708254e+51   8.5266215922484711e+50   1.0744004398721651e+49   4.1597286757242993e+48   1.2945239543100504e+48   1.9823492529016187e+48   3.1955921997949395e+48   2.6899901382983732e+48   -1.4498010862194048e+51   -6.7589318338253043e+50   -8.7437244433357991e+50   -4.2473685385664422e+50   -4.4512797790863271e+48   -5.5556731003760717e+48   -3.6615607637516079e+49   -2.5925029751403024e+49   -1.4371392700494326e+49   -1.6971725066434254e+49   2.3050801943468242e+49   -1.4168744713419970e+49   -4.1222259733551686e+49   -7.0477960385768895e+49   1.0922724498556281e+50   1.4544735798262355e+50   -3.0766657269015264e+48   8.0577860983166712e+47   1.3670564328018944e+49   1.5228329333888258e+49   -1.4114285131133648e+50   -1.5155281074872468e+50   -7.5090767873809322e+48   2.9536026595308393e+48   -1.7229189633559498e+49   -1.0471301184462071e+49   3.8810333415179533e+48   -5.8519494940739419e+48   3.5501065427268963e+50   1.3534226151264170e+50   -3.5028034312774730e+48   -4.5090931595933734e+48   -8.3884391540930253e+49   -8.8927559153822918e+49   -9.9948379610175996e+47   1.0154873444128412e+49   -3.5221366831439272e+49   -1.5842757393448313e+49   1.5765778367871088e+49   1.1317203804224018e+49   5.0873559454703572e+48   1.0989190672377041e+49   5.1048634802119167e+49   -3.6541746659752881e+50   -4.2095464508923528e+48   -1.0332235404331287e+49   1.3744988116542495e+49   7.8347712560258932e+48   -1.3908690787454267e+50   -1.2152672915476017e+50   7.9289947015653546e+50   1.6004356978967918e+51   6.0165028515435759e+48   1.0859207968587913e+48   -6.3824279068636772e+49   -5.0712178937170648e+49   1.7407438775140114e+50   3.0682359668879824e+50   -8.2690281100901734e+50   -6.1808464886023170e+50   -3.1092186690897190e+49   -3.6828691382343557e+49   6.1342222175559254e+48   1.0023103390299219e+49   -3.0275423995561731e+49   -1.2620490440541613e+49   -4.0705100654704456e+49   -4.4891204757886851e+49   -4.2532123089808777e+48   -9.1661309060729277e+48   -2.8009461642047967e+50   -6.2173766549596494e+49   -5.0289833527848423e+48   -6.6005818527425266e+46   7.9666342507190015e+48   4.9240342616585103e+48   -1.0796869838981805e+49   -1.0402497691119393e+49   6.9667742416334253e+49   7.0899732515524615e+49   -1.0164711545052789e+49   -2.4511861961682462e+48   -5.7442940984886350e+49   -4.6883699983887914e+49   1.4391839440673131e+49   2.1438750442424656e+49   -3.1317542290503909e+49   -3.2865271928288467e+49   -1.9679569679817520e+49   -2.2533406818841777e+49   5.7534815387738577e+49   8.4439746050875754e+49   1.1272848017784622e+51   4.8168702685244376e+50   7.8707387354911440e+49   7.3538428123918667e+49   1.9081776796173269e+48   -2.9595232344078216e+47   -1.1411043435301393e+50   -4.3031519572316070e+49   1.9431453503180677e+50   1.9063624817085771e+50   -1.7304083571673020e+49   -2.0868836639633289e+49   4.2753202402851706e+48   4.1042858178562787e+48   -2.5115904848359719e+49   -1.8274874686006018e+49   -8.2726168935554180e+49   -3.6877599168483798e+50   -8.9159389897896674e+49   -1.0143114672711822e+50   -4.7059447124436322e+50   -7.6779562612032757e+49   1.2365650780765256e+49   -7.2465484395208597e+48   -2.2395810052431126e+50   -4.2174379609018032e+50   3.8860064908010595e+49   4.4021126709828980e+49   2.2113993757206162e+49   1.6432511186169839e+49   5.7378946823047825e+49   4.0222496005518318e+49   -1.5589688987395989e+49   -9.6342035745576312e+48   9.6976947975181879e+48   2.4375403405071799e+48   6.6984090106268403e+48   -6.8710230521074270e+48   -3.9055804957648990e+49   -4.6492345000616329e+49   -2.3952273449214797e+49   -2.5049841567055226e+49   -5.7758933323813912e+50   -1.0552962703720001e+50   1.4134203174492632e+50   1.6470987926670531e+50   -3.3633944192386081e+49   -3.0953967305481572e+49   -3.0377476734065557e+49   -3.4996855416291410e+49   6.4149640150594522e+49   7.2853799769715433e+49   6.5691577546670924e+48   5.1215920815395861e+48   3.8728507497647190e+48   -2.5455979709272223e+48   -1.7102980629066045e+49   1.0891350347317065e+49   9.2833972259631806e+50   4.0659947939694273e+50   1.5471794663067216e+48   -1.2754746508915441e+48   -1.2152024843563172e+48   9.1148263951009074e+47   -1.0269935518614050e+50   -8.6114580468027007e+49   5.6592707810814939e+50   1.0444489480125042e+50   9.6927443510550373e+48   1.2327092062193399e+49   -9.5162226682590615e+48   -1.4779212193573036e+49   -1.1021028688176709e+50   -6.9533702223697186e+49   4.5536833603954154e+48   1.7756648494266614e+49   9.1961470789173919e+49   6.2524829608618902e+49   2.0241742617908674e+48   1.9591917048214294e+48   1.7639774169442145e+49   9.1749715297561296e+48   -5.2346496559690301e+48   8.1387726071596003e+48   1.6084432398075016e+49   2.6982123250626418e+49   -1.4839501653133933e+49   -1.1955516014758058e+49   -9.8780154915204877e+50   -4.3759350116102884e+49   -2.4300942572383966e+51   -1.3456829606076301e+51   -1.1422131662372426e+50   -1.0267694452802720e+51   2.4269543759010172e+50   1.8912668735534107e+50   2.2681902228193864e+49   1.4527407833393345e+49   -3.6366539135936324e+49   -5.5264672017645631e+49   -4.5223969539398486e+48   -5.6247811796054006e+48   2.1391957603398354e+48   2.5792268293600846e+48   -6.6241789233719697e+48   1.4280095480352828e+48   5.2143165022435342e+49   2.7527938275453926e+49   4.2482385495773047e+49   3.5833804175856708e+49   2.8240040822986510e+49   2.9431500696896926e+49   2.0725731202647093e+49   2.4734425577023779e+49   -9.9343038010353695e+48   2.2445219473201497e+48   -3.4857319108775385e+49   -3.0321732553054951e+49   -2.4654699963606992e+49   -2.7413401330946557e+49   2.1833501209468061e+49   2.4099630510702008e+49   -2.9675551614496563e+48   -3.1710725676853272e+47   7.5558599545753852e+49   1.7832366504334879e+50   -8.9874558838478576e+49   -2.4858159247368020e+50   -2.7008744673467806e+50   -8.7709518913397729e+49   1.9598648250078669e+50   4.2731034428735084e+49   3.0624994019506108e+49   7.6398643331198881e+50   1.0480391206571716e+50   1.2584316914410439e+50   2.7175141259004262e+48   1.6693743350958686e+48   -2.4670714742035476e+48   -5.8548698211182621e+47   -4.8768444045681860e+48   -6.3483650578267304e+47   -6.2821387898597243e+49   -5.8124440579682265e+49   1.0007894985031365e+49   1.5822684124781641e+48   4.2211195380482061e+48   7.2510151010157301e+48   -1.9836629987078814e+49   -1.6261885363915462e+49   5.2771387802394689e+49   2.4566094845763158e+49   2.2746480444954781e+47   2.4402527369227753e+48   6.2187437369821067e+48   7.1489357589014636e+48   -5.1855513867618949e+49   -5.8221659790524107e+49   5.9082901325459376e+49   6.0691259081823637e+49   -2.3349584287055656e+48   7.8952964444810217e+47   -3.6424356985028556e+50   -1.4512109725239833e+50   6.8914043783652211e+49   6.7517241498569422e+49   9.3749473671279028e+48   1.6419217178229745e+49   4.4803888297523699e+50   2.3166462595877747e+50   -1.8739095947387759e+50   -5.6202479315656163e+50   -2.8777904741534110e+49   -2.5906658893211857e+49   2.7922899387153255e+49   3.3626166004567865e+49   -1.1631625247353513e+50   -1.3401061358855633e+50   -9.9149226419337662e+49   -1.0212262366826806e+50   -6.5019949006080404e+47   -2.7510059915124410e+48   1.1546889004216961e+50   2.4707192053280323e+50   -7.1773691192364473e+48   3.1697682781321190e+48   -2.7608168425962571e+50   -8.9131299844010590e+49   -1.2985368229924640e+48   1.2502171297619103e+49   1.2324787152590292e+50   6.5121559884889446e+49   3.3682586573670156e+49   3.3678143738335710e+49   -2.0472981745710181e+50   -4.0018543122080138e+50   -1.2101153764615832e+50   -1.2828759525115967e+50   -1.6278364407095631e+50   -5.0172805483619082e+49   1.7190267817642563e+50   5.3702888474957336e+50   -5.4709109366068027e+48   -8.9448480396714065e+48   4.0085686747257347e+49   1.6640998062398067e+50   8.4015252976747269e+49   7.5416012062633518e+49   1.3302087560571089e+50   1.2680421540482973e+50   1.4842801529135304e+50   1.6781426893981787e+50   1.2860241887307833e+50   3.8889912161957035e+50   -6.5616745886393832e+49   -1.6652556680279144e+50   -2.8860050457292817e+50   -6.6202214561909528e+50   1.6207074983820277e+50   9.8729384140981653e+49   3.1991180812459058e+50   1.2764510301543053e+50   5.1889904661853750e+51   5.1509617913470607e+51   -4.2672174924226213e+49   -4.3512206927959864e+49   -4.0308099549679045e+49   -3.3537114208008387e+49   2.4253501188058310e+49   2.2971536667265135e+49   7.5285816930808325e+50   2.0593378485752224e+50   -1.0033703955458879e+50   -8.1249547779848498e+49   -8.6537686535016515e+47   -2.2850010853938984e+48   -1.8109845322310194e+49   1.2940019011087811e+48   -2.4194709662337410e+48   -7.5239228814858776e+48   -3.1401029959350835e+50   -1.2752584876891791e+50   2.4374395693839884e+50   1.8384438887244706e+50   -1.7877679305006948e+50   -1.7075995239528996e+50   1.5370537829421698e+49   1.1076820983853188e+49   2.3900145838771286e+49   1.8977667412822949e+49   9.8295679543069114e+47   2.3843018073420696e+48   1.3972598093844850e+49   1.1477230089108215e+49   6.2920284543884100e+49   6.7249920701153458e+49   5.0233982109396717e+49   5.3737601745847467e+49   4.9420169642923688e+49   4.7169146455377785e+49   3.8662746032533652e+49   4.4699219221777072e+49   -7.3856266334021678e+48   -7.0250215621008784e+48   -8.9442206289077198e+48   8.5323819543401880e+47   </DataArray> 
</CellData> 
</Piece>
</UnstructuredGrid>
</VTKFile>