<?xml version="1.0"?>
<VTKFile type="UnstructuredGrid"  version="0.1"  >
<UnstructuredGrid>
<Piece  NumberOfPoints="2534" NumberOfCells="4892">
<Points>
<DataArray  type="Float64"  NumberOfComponents="3"  format="ascii">0 3 0  0 -3 0  6 -3 0  6 3 0  3 -3 0  6 0 0  3 3 0  0 0 0  3 0 0  0 -1.5 0  1.5 -3 0  1.5 3 0  0 1.5 0  6 -1.5 0  4.5 -3 0  6 1.5 0  4.5 3 0  4.25 -1.25 0  1.75 1.25 0  2.25 -1.5 0  4.5 0.75 0  1.541666666666667 -0.2083333333333333 0  3.219827586206896 1.521551724137931 0  1.125 -1.875 0  4.875 1.875 0  0.8702651515151515 0.631628787878788 0  2.25 2.214285714285714 0  3.316176470588236 -1.904411764705882 0  5.214285714285714 -0.75 0  5.03125 -2.03125 0  0.96875 2.03125 0  4.041666666666667 -0.2083333333333333 0  0.8205128205128206 -0.9134615384615387 0  3.942582294752138 2.189194098250713 0  3.061487638533674 -0.968243819266837 0  2.192708333333333 0.4427083333333334 0  4.157850026972511 -2.182329047049442 0  2.331456616463011 -0.5285296485744057 0  3.654761904761905 0.5654761904761902 0  5.25 1.125 0  2.563673341677096 -2.280663329161452 0  5.126674107142857 0.1283482142857142 0  0.75 -3 0  0 -2.25 0  6 2.25 0  5.25 3 0  0.7680051888903191 -0.1384245958639337 0  1.617229471026718 -1.006949429867069 0  4.218940341429579 1.468686552856807 0  3.75 -3 0  2.25 -3 0  0.75 3 0  5.25 -3 0  6 -0.75 0  0 -0.75 0  0 0.75 0  2.25 3 0  6 -2.25 0  0 2.25 0  3.75 3 0  6 0.75 0  1.787573018358365 -2.279142327213878 0  3.195025188237337 2.273430909158844 0  2.528159645294386 1.151699106559287 0  1.041598427383826 1.322848427383826 0  1.520951704545454 0.4634232954545453 0  1.580357142857143 2.325892857142857 0  4.919642857142857 -1.361607142857143 0  4.54981623521892 -0.6483700862895494 0  2.99317863826574 0.6697091957925523 0  3.450169349029507 -0.4574865881858001 0  3.605016126014028 -1.323102984840902 0  2.745144658907412 1.882241931337371 0  0.4898065586600511 1.092777516238393 0  0.5 -1.875 0  1.217028489597945 -2.469323836800685 0  1.659912685567181 -1.604738056701542 0  5.4375 1.6875 0  5.34375 2.34375 0  4.52741779500503 2.384139265001677 0  3.375 -2.514804579549941 0  0.5446428571428571 -2.455357142857143 0  2.766554087216865 -1.745795909102064 0  4.525516559010988 0.1490283123570637 0  3.87554132162248 -0.8280516069565407 0  4.53622906132958 -1.76963146596888 0  0.4243951612903226 1.875 0  0.554851858345021 2.446861709948876 0  5.575604838709677 -1.875 0  5.445148141654979 -2.446861709948876 0  4.875 -2.575604838709677 0  1.440573466105381 1.721823466105381 0  2.193519495405082 1.631799415080963 0  5.472630128027442 -1.330813078900983 0  4.750126894286386 1.343813447143193 0  5.607142857142857 -0.375 0  2.625 2.607142857142857 0  0.3921763197810531 0.375 0  5.60901753622775 0.3750000000000001 0  1.125 2.613454943235572 0  3.701856738980915 1.163867513386733 0  3.736112850688509 1.696746876851408 0  3.519183195491339 0.06065128742606851 0  3.973620778217027 -1.693401606145563 0  0.8125 -1.444978632478633 0  1.256657745408029 -0.6381828923025001 0  0 -1.125 0  5.019997778514942 0.6475044429701156 0  4.125 3 0  1.285569332703024 0.8955310332120207 0  0 -0.375 0  0.4638922275641027 -0.5625 0  2.056635259780241 -0.07226025978024064 0  2.130475508371123 -1.000827820434028 0  2.677484372338113 -1.267299126394495 0  2.848680878891876 -0.4956836878192376 0  4.937901885089369 -0.3340245904575954 0  4.393563081308854 1.919544166973803 0  4.053859126323572 0.2813938488760716 0  1.181051704329518 0.1167440895674965 0  1.971354166666667 2.607142857142857 0  4.875 3 0  2.519350561152006 0.08093582719875507 0  3.139443301924015 -1.442524927271905 0  6 2.625 0  1.849169256239503 1.945480934753207 0  1.867196483071171 0.7892354369530077 0  1.192506522009051 -1.184888428863342 0  3.375 3 0  3.603234392481833 2.536866305538572 0  3.846752908916648 -2.537707634073423 0  2.014339897513945 -1.886932065281681 0  4.038392037966526 0.8363324773944992 0  4.421242701722609 -2.552534687860327 0  3.715389848650903 -2.108856956172843 0  2.985668138820625 1.127780908772207 0  0.4500794934449803 -1.173696061598557 0  3.366760888116476 0.8891914618875614 0  1.869163043700093 -0.6107175804171328 0  2.175114838273305 -2.53928723780967 0  3.014417665538299 -2.241523065744933 0  2.625 -3 0  2.819968145332426 -2.617202329573456 0  5.625 1.3125 0  5.563263538826679 0.814027077653358 0  5.625 3 0  2.550041671270923 0.7074928970804664 0  4.014583091741168 2.59891853892166 0  0.6440729668673318 1.499523832583132 0  5.219449799568244 -1.660557808485412 0  3.474012636702472 -0.9300738420779746 0  0.8125 -2.142857142857143 0  1.875 -3 0  4.945010515846405 2.554471797033147 0  2.611388969012422 -0.8478354915063726 0  3.223746055611014 0.3371683159691745 0  4.843939757110898 -0.9483610977948225 0  4.66556954816842 -2.220888354477256 0  4.125 -3 0  4.448108395110625 -0.2524000502731018 0  5.63671875 2.05078125 0  2.822484133964224 1.491327727709286 0  3.378213092764193 1.903125093887009 0  5.607142857142858 -0.9231200445788541 0  2.12639693023183 1.100450516019641 0  5.625 -3 0  0.375 3 0  0 2.625 0  6 -2.625 0  0.3931307155906299 -0.01856779822591927 0  0.8549199714190221 -0.5218333744252657 0  0.7651723094668359 0.253768144801553 0  1.421989550604507 -2.133299471886336 0  1.582611957351803 -2.615166692128227 0  4.420331038793115 1.133144382396504 0  0.375 -3 0  0 -2.625 0  5.078156723571596 1.54697017071479 0  1.877250715260938 -1.288801575378032 0  2.409169073010687 -1.916147168931784 0  1.146151077069952 -0.268000681695328 0  1.726784828652036 0.1335728643263411 0  2.745628549924675 0.3838821021397905 0  3.011490900297165 2.613625569196862 0  5.62463365164608 -4.137655439684362e-05 0  1.875 3 0  1.125 3 0  6 0.375 0  2.625 3 0  6 -1.125 0  6 -0.375 0  4.875 -3 0  6 -1.875 0  3.375 -3 0  1.125 -3 0  0 -1.875 0  0 0.375 0  0 1.125 0  0 1.875 0  6 1.125 0  6 1.875 0  4.813017731148975 0.9677363687196439 0  2.807371623148303 2.264962208227767 0  0.3692953377255688 0.7436406761680247 0  5.615625 2.615625 0  0.9395725521479794 0.9812935874921043 0  1.390920759130215 1.238984550166515 0  0.9588795022085095 1.672288500195331 0  0.87712392565124 -2.641031728267331 0  0.3665732993114588 -1.532068934251388 0  1.841944504733106 1.591700334213738 0  4.832970185136452 0.3385359233091246 0  4.169083540479082 -0.5746148619765254 0  5.281697083409333 -0.2046640461936881 0  4.072845380968044 1.784516523483641 0  1.293029195762321 -1.543079049035419 0  4.878733886054284 -1.720697370582964 0  3.609167475697567 -1.687579152754035 0  4.836981942878573 2.222259978217028 0  4.204938267037067 -0.9128589669335569 0  5.183079748175263 -1.111742407358677 0  1.469404041858679 2.654509729682302 0  1.22880920402559 2.273525645756405 0  4.566761045622856 -1.414165869120005 0  4.531680518427715 1.606803989975667 0  1.918929241273175 2.27471131819245 0  3.590183783343969 2.184680610175416 0  1.85683899811842 0.4533569963423589 0  1.173935704088662 0.4636872214645547 0  2.116602160898525 -2.207718541460878 0  4.51821874648995 -1.042568353750147 0  2.721551512787618 -0.1859357475290837 0  5.294921875 2.001953125 0  5.288671874999999 2.670703125 0  2.199940744527116 0.7756512213396931 0  4.090519467638897 1.163401080812838 0  2.298177083333333 2.670581371753247 0  2.484362362207526 -2.687319997637033 0  3.300530569898859 1.207053005217563 0  3.936078051808127 -1.362164062673065 0  5.341218841330105 0.5689885832563615 0  4.226314635599414 0.5638853401248238 0  2.524510956818563 1.635483567726497 0  0.3219546452225031 1.389066019009203 0  3.139061555368706 -0.3133905221155423 0  3.145569907612562 -0.6461828528638952 0  3.701427442033566 -0.2272880199383185 0  1.686782510365738 -1.934662341426927 0  2.427696494631844 1.944064773844184 0  3.901817839425732 1.422433381251312 0  2.356489883772755 -0.2025512972825912 0  4.820757576351118 -0.01647699434507374 0  3.064415631228375 1.809719380809516 0  4.643002705009462 2.69782572459795 0  4.31624250429496 2.728112685900672 0  1.520100694408069 -1.314302747998057 0  3.754559308601717 -0.5375020107416889 0  0.25 -2.0625 0  0.8125 -1.826636904761905 0  4.861738621091127 -0.6367294570749906 0  1.545149590740081 2.015832101819233 0  3.857113324620078 0.04127675193819436 0  0.3162874907704933 -0.864918315983958 0  4.21293081604216 2.352874368135467 0  3.123697687162562 -2.708090473740421 0  3.415275466010259 -2.202892416689829 0  3.601103065320932 -2.727566580522146 0  1.558629964945672 -0.5289921609136927 0  3.324859026263307 -1.198136798699183 0  2.424350759683917 -1.092246517929194 0  2.789248065239812 0.8954629970670158 0  0.8882026075771248 2.364936378889839 0  0.8066140242673685 2.679750706449505 0  4.504454978490482 0.4491616076730165 0  4.26881784709759 -0.009649566552704852 0  1.313479173834523 -2.758675889510418 0  1.120577805361368 -2.179971784090952 0  3.734048623985226 0.8602850349907256 0  3.527828882622877 1.432983527791925 0  1.959527908877504 -1.578124930685265 0  0.7602573574724077 1.220872343399509 0  0.6691217533356228 0.8531987603309893 0  1.877213035764122 -2.564340152892596 0  3.304349402914068 2.552016594979913 0  4.285565286275464 -1.569057178671076 0  4.227521511146333 -1.876903861267543 0  5.34375 1.40625 0  5.71875 1.59375 0  1.56245959534423 0.766197796710638 0  0.2458241530773257 2.4375 0  0.2794123857609179 2.138568368155198 0  5.754175846922674 -2.4375 0  5.720587614239082 -2.138568368155198 0  0.6472458227887359 2.124973059628837 0  5.124241021325378 -2.352544055105642 0  5.189172233440652 -2.675873509996353 0  5.364643151640443 -2.12768524739804 0  2.298896485720138 1.348573610321417 0  0.6008689899200503 -2.745193425346304 0  0.307092513690391 -2.651812055231556 0  0.2683745826107009 -2.363146293324415 0  0.5223214285714285 -2.165178571428571 0  0.5169611136983336 2.740349995819724 0  5.607469108596883 -2.699891746740618 0  2.138439274270545 1.947386893596098 0  1.25507379660067 1.953406658386351 0  4.135759889512124 -2.476847355718572 0  2.548249345531056 -1.538893887888457 0  2.771010284190282 -2.05339728351
[...]
<CellData  Scalars="f_26-2"> 
<DataArray  type="Float64"  Name="f_26-2"  format="ascii">-1.7342916397477734e+11   -2.1121862927055142e+11   -3.1629311396555396e+11   -2.7238222820010583e+11   -3.0208974342409833e+11   -5.5647043581279761e+11   -1.9521592914712085e+11   -2.5281016364816719e+10   -2.1888627568823544e+10   -1.7265238440516870e+11   -1.4936327617513110e+11   -2.7828819557958197e+11   -1.0360762066412054e+11   -3.4402423705194867e+11   -2.9573284265059097e+10   -2.2279562991241479e+11   -2.9049132769625507e+11   -7.0847140136550875e+09   -2.1919540242653790e+11   -1.2790934632715875e+11   -3.8680677169114435e+11   -8.8595060948321732e+10   -2.3998571330292798e+11   -1.2523694420324275e+11   -1.7376060010758420e+11   -2.2218161900268533e+11   -3.9782637469437994e+11   -1.3711728045643158e+11   -1.3929545423112704e+11   -2.0789242789296704e+11   -1.0144609911012828e+11   -1.0318474175607768e+11   -1.7941461759939185e+11   -1.5779191655791293e+11   -1.8404548050875732e+11   -2.0635106722948984e+11   -2.5420981717196860e+11   4.9478747265393257e+10   -3.1971650501035516e+11   -2.2011839748705017e+11   -8.5435880973853638e+10   -1.9803034961018475e+11   -1.3521959126748865e+11   6.5366483618663437e+10   -7.1771207416841479e+11   -3.1489471928304675e+11   -4.0594768433370276e+11   -1.1122730839445583e+11   -2.4790161040737344e+11   3.8405987396261287e+09   -2.7094738683452393e+11   -1.8816934570920364e+11   -1.0563922671737447e+11   -2.3469608314497217e+11   -1.8969375415410291e+11   -1.9182812214611237e+11   -3.0909001078844244e+11   -2.3662412540557764e+11   -3.1096126797106773e+10   -2.9901746182284027e+11   -1.2801799274060255e+11   -2.0273771502531128e+11   -3.0872816562598346e+11   -1.8146033332993460e+11   -5.8876548017117088e+10   -2.2093338099132059e+11   -3.2343809148863837e+11   -4.2588691205123077e+10   -8.5396282737907516e+10   -2.3052686661127957e+11   -1.1853897093015819e+11   -1.0029238984451025e+10   -5.6134399247332939e+10   -1.8370941964289722e+11   -1.5463931103739398e+11   -2.3018001962860218e+10   -1.0074217242873943e+11   -1.9255021710157767e+11   -3.5392505047304559e+11   -5.6354362752991295e+10   -1.1205816096197749e+11   -1.6640193157375443e+11   -2.3578377779484604e+11   -3.7903354115132001e+11   -1.3844913798766565e+11   -2.1906580730549255e+11   -7.1476151266295120e+10   -1.8123088540439594e+11   -1.7911150825784091e+11   -1.9415839914565729e+11   -2.2617744476708679e+11   -2.0741517156371951e+11   -3.8552509561291803e+11   -4.6009533473744865e+10   3.8103496701682495e+10   -3.6576652257078809e+11   -1.6791987442995209e+10   -1.4963983509145074e+11   -1.5401572738813135e+11   -1.0525752100501836e+11   -1.1128963807849422e+11   -3.9665675439401215e+10   -1.1956652630777570e+11   -9.3602319694448044e+10   -2.0078025174267258e+11   -3.4565026812340350e+11   -2.8630153329536670e+11   -1.4925335111263931e+11   -2.9979664868744823e+10   -1.3102429843544075e+11   -1.3667050214750839e+11   -8.9402516685914001e+10   -1.0009192067030072e+11   -1.5305107175030212e+11   -1.7798347722246976e+11   -3.2187764920707050e+11   -4.7337103278158411e+11   -9.0289434337054398e+10   -1.0580089688795706e+11   -4.4235868321160406e+11   -2.7878257437422810e+10   -2.4053994696467206e+11   -2.3360314735792255e+11   -7.2808936658745590e+10   -1.9700235491828833e+11   -1.0129277751288664e+11   -5.8900070260827332e+11   -1.7981657681344400e+11   -4.3185892042006140e+11   -9.8011966254354660e+10   -1.4895385432044913e+11   -2.0010468508366425e+11   -1.9702146602960593e+11   -5.8610611093126984e+10   -1.6627544774938988e+10   -9.6382034762896225e+10   -2.2168172958089761e+11   -4.6832979834608875e+11   -6.2931080387347878e+10   -2.6220515298903421e+11   -1.3341218639650473e+11   -1.2370907554590294e+11   -3.2520693178224597e+11   -3.4409553894316388e+11   -4.0961986980592354e+10   -9.9346772131815625e+11   -2.3621564904056606e+10   -2.6988230420683185e+11   -1.7132532645755887e+11   -5.7093972120327042e+10   -1.2694649362575810e+11   -1.5986278662336887e+11   -1.7631381268060431e+11   -2.3633986853413116e+11   -2.0694357066807556e+11   -1.3700044295055038e+11   -2.2525957384895618e+11   2.3039698785002415e+10   -3.9339103131150171e+11   -8.4842584619135742e+10   -3.6200396874911646e+11   -1.4896032052313632e+11   -1.8487515761312018e+11   -3.4564929290196576e+11   -9.5929080315839981e+10   -3.4548555531472894e+11   -1.6684682853861871e+11   -2.8808270990959088e+11   -1.5960392680238455e+11   -1.4706921816805740e+11   -4.4277008765831123e+10   -6.7724906411794075e+10   -2.0886293205988522e+11   -5.8037942426094872e+10   -1.3309389621677963e+11   -4.6054413337217419e+11   -1.7486002418511218e+11   -1.2872030151873267e+11   -2.2706071220962909e+11   -7.9468799190121689e+10   -1.0367051504697942e+11   -2.9234903392749489e+10   -7.7153422822636948e+10   -1.2436928818023291e+11   -4.4328553894956311e+11   -4.0126195913588934e+11   -2.5063639762844708e+11   -2.2077763464149142e+11   1.7135701614741396e+10   -1.2911868974567525e+11   -5.8566776759723770e+10   -2.2952042302697003e+11   -4.1132162464078026e+10   -1.8370467911991043e+11   -3.5668549073320602e+10   -3.3329874862492462e+11   -2.7513742003507062e+11   -2.2921467755259647e+11   -7.7359432551724167e+10   -1.0210832621927252e+11   -1.9655059191207634e+10   -2.2017440130318649e+11   -2.6133897177683511e+11   -1.8644705467790958e+11   -2.5955747603903299e+11   -1.4548952465791187e+11   -5.8276348295119308e+10   -3.8591143977047266e+11   -1.6640988460040402e+11   -2.4467675528969885e+11   2.4016934633940987e+10   -9.6613865380300781e+10   -2.0373169792711160e+11   -3.1952710015686211e+10   -4.2095917882398175e+11   -2.1686378699137827e+11   -3.2202635095247113e+11   -1.2680466987661163e+11   -1.0274932734728516e+11   -4.4887743548497571e+11   -8.1990537269709320e+10   -2.4707546744350293e+11   -4.0187743897354822e+11   -1.8477539894248297e+11   -2.3649031036069617e+11   -2.3403042662388449e+11   -3.4459920669630684e+10   -9.1981152630688889e+10   5.4726280917095894e+10   -1.3850396175219281e+11   3.7929338739453959e+09   -3.7793111106948433e+10   -1.0145293792535583e+11   -1.2468073835868938e+11   -3.1048522915833368e+11   -2.9939443008732947e+11   -2.1197797534374283e+11   -1.1169540910859029e+11   -7.7988823740503891e+10   -7.6511729373578781e+10   -3.9907877735117889e+10   -1.8184006583971390e+11   -2.7618859831363464e+11   -9.0903285427486755e+10   -3.4533209019632391e+11   -1.2437306651980295e+11   -3.4848929942211621e+11   -1.1316161108525404e+11   -6.3990185933522217e+10   2.7727908355856426e+10   -5.8411113636025215e+10   -6.3920794618403328e+10   -2.3329500422530887e+11   -1.6326690237905606e+11   -1.0225280995220581e+11   -7.5100857006129547e+10   -9.4365395586558807e+10   -1.2723449265166127e+11   4.2441976446051384e+10   -1.3872776984812762e+11   -8.0168843808208084e+10   -3.6323223385214252e+11   -1.2551232925046228e+11   -1.8605982970117621e+11   -1.4064152866467010e+11   -2.1091500441359250e+11   -8.1650192366301987e+10   -1.3603989995695787e+11   -2.9665307085643311e+11   -1.3053513881771511e+10   -1.8117930885979807e+11   -2.7852131836810925e+11   -3.3746030767715417e+11   -2.8835493038881879e+11   -1.4445721528358576e+10   -5.8311226371531303e+10   -2.8112544116266003e+10   -2.2929021337709448e+11   -1.3387908651114061e+11   -6.1882362028441032e+10   -1.6979528878500430e+11   -3.2401624121737179e+10   -2.4455941594212732e+11   -1.3113245583870309e+11   -7.2927595782259293e+10   -5.5565204004251602e+10   -1.9436067378456461e+11   -1.9377275023338065e+11   -1.5357077613353952e+11   1.6479832541884335e+10   -2.1819931131061282e+11   -2.3901397971691116e+11   2.1498867910860496e+09   -7.7487037279844467e+10   -9.7221458262494568e+10   -1.7437452972813965e+11   -1.7178444958057297e+11   -3.8750462645387733e+10   -1.9977615620930280e+11   -5.3049569511845905e+11   -2.7076996678371582e+11   -1.5740967173766519e+11   -1.8213866566626385e+11   -1.1631947583154817e+11   -6.0399889862715355e+10   -8.3005474032703369e+10   -3.2662319339686200e+11   -3.3755150293771793e+10   -1.3618374566003343e+11   -9.0559389866699402e+10   -1.1455687479353854e+11   -1.3947219444882855e+11   -2.7404547266173715e+11   -1.3328971500861879e+11   -1.7192384852802496e+11   -1.2267306831492459e+11   -1.5734554892661066e+11   -1.9331332973439764e+11   -1.2156571343968134e+11   -2.8949558345856683e+11   -3.1149878174359607e+11   -9.4666459693228012e+10   -1.5909492917731140e+11   -2.6536863677065308e+11   -1.0954343314930746e+11   -1.5448245052667450e+11   -1.6518851347888434e+11   -2.4657210662070642e+11   -2.3102551295337088e+11   1.6865175601600510e+10   -2.3178938035483533e+11   -1.5830627501827939e+11   -2.1925909707072336e+11   -2.5999678380146301e+11   -1.6401741498578851e+11   -2.5452669664198892e+11   -7.9471578060014435e+10   -6.7586412294601135e+10   -1.4049971149855740e+11   -2.0471410347231985e+11   -5.5358959876325462e+10   -1.0991115122810248e+11   -9.8915777995004440e+10   -8.6676713397945587e+10   -7.4056254190940094e+10   -2.1437867590185309e+11   -1.0208152929650241e+11   -6.0098819300893776e+10   -1.9675588324029291e+11   -1.0508618222923351e+11   -1.0467066681782455e+11   -1.1708387446670656e+11   1.0635081754951552e+11   -2.7365872060150967e+11   -3.0963335889362683e+11   -8.4019307751146088e+10   -1.3018898223078827e+11   -8.1841150667740891e+10   -5.0264608940710052e+10   -1.1331346717602980e+11   -7.4884845229765503e+10   -3.6692642266551270e+11   2.6267446773933845e+09   -1.6996255189725848e+11   -7.1538788924706360e+10   -1.7395914295229535e+11   -3.1133017003155743e+11   -3.6848762821036139e+11   -1.6571782250274219e+11   -3.6595679817366260e+11   -1.0446198914335133e+11   -2.7413143698227902e+11   -7.4996720529228195e+10   -1.5090555872689731e+11   -9.0047856401817322e+10   -1.2430601413851627e+11   -1.9730270461215469e+11   -1.0079334212734755e+11   -2.7858073530020184e+11   -1.3717808444198631e+11   -6.7374911951723442e+10   -5.3826507158227020e+10   -1.5021049533054996e+11   -4.6068200544390602e+10   -1.6069953119791296e+11   5.6739845002547783e+10   -1.9247967253114059e+11   -1.4193157668542493e+11   6.0923557091918480e+10   -1.9245027023928702e+11   -7.8007369638191803e+10   -1.3254141700311221e+11   -1.4563142190660336e+11   -2.3276626241604745e+11   -1.4933645807710321e+11   -1.1094218059859898e+11   4.3709356385554169e+10   -3.9411629863518030e+11   -1.9346924876852374e+11   -1.7370955041718661e+11   -1.9027555427487979e+11   -8.7337871685029678e+10   -3.5730590862006157e+10   -1.0951805115010622e+11   -1.6851583694283984e+11   -4.0131453370398297e+11   -1.7753354815989511e+11   -6.2887789773469763e+11   -1.6721260502944403e+11   -3.0680735747654877e+11   2.8648489151034042e+10   -1.6030048023613586e+11   -1.6038620253240414e+11   -3.1294350595189236e+10   -6.7277280234223389e+10   -2.2677634986485986e+11   -2.9163677067308331e+11   -4.0911283199609825e+10   -6.1384310468430672e+10   -1.0269879319028831e+11   -1.3989014080464874e+11   -2.5195558966889655e+11   -1.1781664275056143e+11   -3.8728637546802167e+11   -7.9972020040453644e+10   -9.6433984031810638e+10   -1.4648790000842267e+11   -4.0548775518719353e+10   3.7862856119370110e+10   -1.8311967616434039e+11   -1.4048333873340656e+11   -1.7187058898007031e+11   -9.7594491763267471e+10   -1.2619738721895853e+11   -1.1816438270125023e+10   -2.7600780060825885e+11   -1.7753969450632912e+10   -5.4087243565113823e+10   -1.1591376922028996e+11   6.6196199422148538e+08   -2.6642310337073019e+11   -2.3399610800641888e+11   -9.7854137909022476e+10   -2.8448753734196210e+11   -3.1256439373168091e+11   -2.0898360827826794e+11   -6.7605573890046860e+10   -1.6886500284431308e+11   -1.4147738244053748e+11   -1.7772529209188882e+11   -7.7112964943908401e+10   -3.2300764350536273e+11   -2.8342593292311798e+11   -2.1088471007942862e+11   -1.8007233645022223e+11   -1.1261939949470741e+10   -2.9662478531846350e+11   -1.6460346651359305e+11   -2.0224825078500391e+11   -1.5691452338211063e+11   -3.1572768822832123e+11   -8.7539496959632874e+10   -9.5132258821400497e+10   -3.2864464455172981e+10   2.9396262231410408e+10   -2.8423090707544580e+11   -1.7473125723970944e+11   -2.9422046241888708e+11   -5.9389234888313782e+11   -2.3449625628520230e+11   -1.4746260464469714e+11   -9.8475776070102051e+10   -4.5741388621166748e+10   -1.6655439235439825e+11   -3.0753594803851416e+11   -1.0140868155136522e+11   -2.0834329714291739e+11   -1.4030916585720825e+11   -1.6460445128850336e+11   -9.2486134482276062e+10   -3.4832131638348364e+11   -2.0166836909014188e+11   -2.0266813752961780e+11   -1.2563279935146031e+11   -1.7896782108633392e+11   -5.1491263033417999e+11   -2.0727012086121408e+11   -1.8609301763966226e+11   -1.2716213513564711e+11   -1.2037247416680244e+11   -1.3678795424188092e+11   -6.1487633987576744e+10   -9.5976391614569763e+10   -3.9647106517380600e+10   -6.8701139133562393e+10   -1.2966962474311998e+11   -2.8077203326384406e+11   2.1872220055201416e+10   2.2201563739135031e+11   -1.5690013499845789e+11   -2.9485913966394150e+10   -1.5713097590263324e+11   -1.2523236886309010e+11   -8.5664572853867737e+10   -2.2362476284318674e+11   -2.0952520547760019e+11   -3.7108681950858301e+11   -5.3703330520745377e+10   -1.1888466528077071e+11   -1.3005992238526312e+11   -4.8389781480839520e+09   3.2799812889536568e+10   -2.8546792768002271e+11   -2.6537090583818546e+10   -8.9048483055359344e+10   -2.7643359856358490e+11   -3.2054310789388715e+11   -2.6626905669823611e+11   -8.9292583368562832e+09   -4.1942692573933862e+11   -1.4620896951267316e+11   -3.5918303462108374e+11   -9.4708313655333805e+09   -4.4969483114263985e+10   -1.1687829620164984e+11   -1.1512406214666510e+11   -2.7305442307501093e+11   -1.5874670927414142e+11   -6.7877216491293564e+10   -8.5989609818189957e+10   -2.1431186238843463e+11   -4.7004985767575813e+10   -5.6343191458136536e+10   3.7347267739261472e+08   4.0509758213214928e+10   -2.1500936827226944e+10   -1.2900885817519411e+11   -2.2678702530161099e+11   -4.5197291814040039e+11   -9.4017732837623596e+10   -6.4968767981780609e+10   -5.9064328883737144e+10   -3.3323581964862933e+11   -2.0513146064266907e+11   1.1591146053752312e+11   -1.7160212028415256e+11   -7.1582672776069000e+10   -1.9989494465886234e+11   -2.1921992201266232e+11   -1.9848898947296954e+11   -1.9659520750067111e+11   -1.6015330262839471e+11   -2.6374681486265390e+11   -1.3713503588229202e+11   -1.6743701244891772e+11   3.4153870049445705e+10   -1.6017873621761697e+11   -1.4125137249344177e+11   -2.0289230464543188e+11   -3.1935425356749921e+11   -1.1077815901638588e+11   -9.3778480621426880e+10   -2.0675499903307251e+11   -1.0572785027244357e+11   -2.7255748133266183e+11   -1.5339608474088275e+11   -2.2062548841752658e+11   -1.8287663771776614e+09   -8.5390712064010361e+10   -1.1795652651953662e+11   -9.4683664984917374e+10   -8.7119552064454178e+10   -1.1577636594985783e+11   -1.3949474970925369e+11   -1.3151116347897820e+11   -2.1536353068250665e+11   -3.3401825216420557e+11   -1.1331437861684313e+10   -2.0936080011271689e+11   -9.2587406548327805e+10   -1.4391620129598914e+11   -1.8832454267259924e+11   -3.4767125756834894e+11   -9.3872970463302139e+10   -2.9378596652277356e+11   -9.9385527748895691e+10   -1.4079967515736777e+11   -4.1901914972693748e+10   6.4088960806716822e+07   -1.3131359900202005e+11   -1.4274695934432095e+11   -2.6033809982152252e+11   -2.8408654431422501e+10   -3.3802066435224289e+10   -6.3855584553531937e+10   -1.5463150853042798e+11   -2.3767791240334644e+11   -4.7541387165072229e+11   -4.0310798724117836e+10   -5.1862349693531616e+10   -1.6212484472119742e+11   -1.1090545742174559e+11   -2.9249847300729974e+11   -1.1389775818970000e+11   -1.8994939099418863e+11   -4.9476497714791626e+10   -3.6031679630509894e+11   -2.0884168620681497e+11   -1.7176818372083667e+11   -2.3704359854697678e+11   -2.4523978461341739e+11   -1.9905494036294550e+11   -8.2337812012936279e+10   -1.1182911105770476e+11   -1.1024838357281976e+11   -1.3426590085408791e+11   -1.4532487194649490e+11   -6.7528904218817535e+10   -1.1854120336395618e+11   -1.6788175076330997e+11   -1.7563934867830911e+11   -2.3304239085309452e+10   -1.8885771666198886e+11   -1.4414516923870081e+11   -2.4740370618225711e+11   -9.0775026475835121e+08   -7.1862314341828140e+10   -1.8587527199092285e+11   -3.6586771906051224e+10   -9.4845331647121826e+10   -2.0453601733898945e+10   -8.4902183330302689e+10   -1.0768961223177678e+11   -2.1034339609732613e+10   -5.0428095657305565e+10   -2.9135401467711407e+11   -1.4594171997262796e+11   -1.0642212155428024e+11   -1.3191903795971252e+11   -1.4542342885257639e+11   -1.8455323384063416e+11   -8.7494019210515640e+10   2.5959910429066586e+09   1.0532920367290689e+10   -9.4978961986965408e+10   -1.4720101933703295e+10   -7.8915421616485687e+10   7.1396819197212229e+09   -1.5907133068660489e+11   -1.3872648786969678e+11   -1.3619679485171864e+09   -8.9834998862458786e+10   -1.2602692792241188e+11   -6.8887040986471390e+10   -1.2769740458580281e+11   -2.1590288008991681e+11   -2.6792422806285532e+11   -8.7442063377598083e+10   -3.0700887747125262e+11   -1.7713886849284195e+11   -1.0668600967969621e+11   -2.7301992786690131e+11   -1.8861543549473499e+11   -2.1841014081541092e+10   -4.3261094252004347e+09   -1.0005303394134859e+11   -2.3463596724365826e+11   -1.3924057968172339e+11   -9.4361132804893265e+10   -1.2513751601199814e+10   -6.4780093052958313e+10   -1.4382256960412982e+11   -6.5232981614667747e+10   -1.4804225017231020e+10   4.8967666808333862e+10   -8.7705447450790726e+10   -1.4060595724507581e+11   -3.5644546447384674e+10   -2.6216304442923092e+10   -2.1100604939540594e+11   1.3344700395361498e+10   -1.4912378148911188e+11   -1.6733767276759050e+10   -1.6720876556504730e+11   -1.2528715375516998e+11   -1.0812577953259682e+11   -1.1679238261015575e+11   -2.3252733796789055e+10   -1.1819391053764951e+11   -3.7110482369020432e+10   1.1228482598863285e+09   1.7537052728277477e+10   3.5806678900025642e+10   -1.8626627792992563e+11   -9.9135924947408127e+10   -1.2609665724825542e+11   -3.4084075168967426e+10   7.3605065284800903e+10   -9.1610311645104065e+10   -3.2647484211830518e+11   -1.1929428585062741e+11   -1.4103322331363803e+11   -1.3528079013354480e+11   6.2340841150148363e+09   -2.8052484771464043e+10   4.2351726086412415e+10   -9.9947569934909393e+10   -9.6235981999493881e+10   -1.9495863765398563e+11   -2.0390993573721637e+11   -1.8400781554731091e+11   -2.5443703104626898e+11   -1.5784276949531683e+11   -1.7761937463401166e+11   -2.1168510021793826e+11   -2.9758537000896930e+11   -1.9437534489592899e+11   -9.7099449687125381e+10   -1.7515754413926166e+11   -2.3735551996408939e+11   -4.7403124694631958e+10   -1.4452833708601422e+11   -1.1979380416541583e+11   -1.7262715002816010e+11   -8.8443104385554443e+10   -3.2584601438393278e+09   -1.8872428050919400e+11   -3.8682745190869739e+11   -1.4575067331892303e+11   -4.7281754205227005e+10   -1.6215664940216174e+11   -4.2178104038554394e+08   -5.7038051512806030e+10   -2.9844326300158733e+10   2.7391365133489914e+10   -5.2300408131610970e+10   -2.1371656080368114e+10   -1.6246511578727570e+11   -1.7712426291886401e+11   -1.9892273342361385e+10   -1.0680636716351633e+11   -1.9506171293787259e+11   5.3986678948866585e+10   1.4666728470657703e+11   -2.0654804286179037e+11   1.2817480946370395e+11   -1.8058270596172141e+11   -2.2423007193544080e+11   -4.7081989666145996e+10   1.6169665328526850e+10   -2.6918221109711212e+11   -9.4213196783424805e+10   4.1751381590410156e+09   -1.8203372555366199e+11   -1.2607422340889226e+11   -2.0157859315415234e+10   -2.5885623614364633e+11   -1.3670170162007208e+11   -2.9292011053455456e+10   -8.2026612980091690e+10   -4.9458281221779442e+10   -1.0778547117102571e+11   -1.3105977207039116e+11   -8.5664734346611023e+10   -2.2135497509352213e+11   -4.5186736302523155e+10   -1.4865613473385237e+10   -1.985009454296069