<?xml version="1.0"?>
<VTKFile type="UnstructuredGrid"  version="0.1"  >
<UnstructuredGrid>
<Piece  NumberOfPoints="2534" NumberOfCells="4892">
<Points>
<DataArray  type="Float64"  NumberOfComponents="3"  format="ascii">0 3 0  0 -3 0  6 -3 0  6 3 0  3 -3 0  6 0 0  3 3 0  0 0 0  3 0 0  0 -1.5 0  1.5 -3 0  1.5 3 0  0 1.5 0  6 -1.5 0  4.5 -3 0  6 1.5 0  4.5 3 0  4.25 -1.25 0  1.75 1.25 0  2.25 -1.5 0  4.5 0.75 0  1.541666666666667 -0.2083333333333333 0  3.219827586206896 1.521551724137931 0  1.125 -1.875 0  4.875 1.875 0  0.8702651515151515 0.631628787878788 0  2.25 2.214285714285714 0  3.316176470588236 -1.904411764705882 0  5.214285714285714 -0.75 0  5.03125 -2.03125 0  0.96875 2.03125 0  4.041666666666667 -0.2083333333333333 0  0.8205128205128206 -0.9134615384615387 0  3.942582294752138 2.189194098250713 0  3.061487638533674 -0.968243819266837 0  2.192708333333333 0.4427083333333334 0  4.157850026972511 -2.182329047049442 0  2.331456616463011 -0.5285296485744057 0  3.654761904761905 0.5654761904761902 0  5.25 1.125 0  2.563673341677096 -2.280663329161452 0  5.126674107142857 0.1283482142857142 0  0.75 -3 0  0 -2.25 0  6 2.25 0  5.25 3 0  0.7680051888903191 -0.1384245958639337 0  1.617229471026718 -1.006949429867069 0  4.218940341429579 1.468686552856807 0  3.75 -3 0  2.25 -3 0  0.75 3 0  5.25 -3 0  6 -0.75 0  0 -0.75 0  0 0.75 0  2.25 3 0  6 -2.25 0  0 2.25 0  3.75 3 0  6 0.75 0  1.787573018358365 -2.279142327213878 0  3.195025188237337 2.273430909158844 0  2.528159645294386 1.151699106559287 0  1.041598427383826 1.322848427383826 0  1.520951704545454 0.4634232954545453 0  1.580357142857143 2.325892857142857 0  4.919642857142857 -1.361607142857143 0  4.54981623521892 -0.6483700862895494 0  2.99317863826574 0.6697091957925523 0  3.450169349029507 -0.4574865881858001 0  3.605016126014028 -1.323102984840902 0  2.745144658907412 1.882241931337371 0  0.4898065586600511 1.092777516238393 0  0.5 -1.875 0  1.217028489597945 -2.469323836800685 0  1.659912685567181 -1.604738056701542 0  5.4375 1.6875 0  5.34375 2.34375 0  4.52741779500503 2.384139265001677 0  3.375 -2.514804579549941 0  0.5446428571428571 -2.455357142857143 0  2.766554087216865 -1.745795909102064 0  4.525516559010988 0.1490283123570637 0  3.87554132162248 -0.8280516069565407 0  4.53622906132958 -1.76963146596888 0  0.4243951612903226 1.875 0  0.554851858345021 2.446861709948876 0  5.575604838709677 -1.875 0  5.445148141654979 -2.446861709948876 0  4.875 -2.575604838709677 0  1.440573466105381 1.721823466105381 0  2.193519495405082 1.631799415080963 0  5.472630128027442 -1.330813078900983 0  4.750126894286386 1.343813447143193 0  5.607142857142857 -0.375 0  2.625 2.607142857142857 0  0.3921763197810531 0.375 0  5.60901753622775 0.3750000000000001 0  1.125 2.613454943235572 0  3.701856738980915 1.163867513386733 0  3.736112850688509 1.696746876851408 0  3.519183195491339 0.06065128742606851 0  3.973620778217027 -1.693401606145563 0  0.8125 -1.444978632478633 0  1.256657745408029 -0.6381828923025001 0  0 -1.125 0  5.019997778514942 0.6475044429701156 0  4.125 3 0  1.285569332703024 0.8955310332120207 0  0 -0.375 0  0.4638922275641027 -0.5625 0  2.056635259780241 -0.07226025978024064 0  2.130475508371123 -1.000827820434028 0  2.677484372338113 -1.267299126394495 0  2.848680878891876 -0.4956836878192376 0  4.937901885089369 -0.3340245904575954 0  4.393563081308854 1.919544166973803 0  4.053859126323572 0.2813938488760716 0  1.181051704329518 0.1167440895674965 0  1.971354166666667 2.607142857142857 0  4.875 3 0  2.519350561152006 0.08093582719875507 0  3.139443301924015 -1.442524927271905 0  6 2.625 0  1.849169256239503 1.945480934753207 0  1.867196483071171 0.7892354369530077 0  1.192506522009051 -1.184888428863342 0  3.375 3 0  3.603234392481833 2.536866305538572 0  3.846752908916648 -2.537707634073423 0  2.014339897513945 -1.886932065281681 0  4.038392037966526 0.8363324773944992 0  4.421242701722609 -2.552534687860327 0  3.715389848650903 -2.108856956172843 0  2.985668138820625 1.127780908772207 0  0.4500794934449803 -1.173696061598557 0  3.366760888116476 0.8891914618875614 0  1.869163043700093 -0.6107175804171328 0  2.175114838273305 -2.53928723780967 0  3.014417665538299 -2.241523065744933 0  2.625 -3 0  2.819968145332426 -2.617202329573456 0  5.625 1.3125 0  5.563263538826679 0.814027077653358 0  5.625 3 0  2.550041671270923 0.7074928970804664 0  4.014583091741168 2.59891853892166 0  0.6440729668673318 1.499523832583132 0  5.219449799568244 -1.660557808485412 0  3.474012636702472 -0.9300738420779746 0  0.8125 -2.142857142857143 0  1.875 -3 0  4.945010515846405 2.554471797033147 0  2.611388969012422 -0.8478354915063726 0  3.223746055611014 0.3371683159691745 0  4.843939757110898 -0.9483610977948225 0  4.66556954816842 -2.220888354477256 0  4.125 -3 0  4.448108395110625 -0.2524000502731018 0  5.63671875 2.05078125 0  2.822484133964224 1.491327727709286 0  3.378213092764193 1.903125093887009 0  5.607142857142858 -0.9231200445788541 0  2.12639693023183 1.100450516019641 0  5.625 -3 0  0.375 3 0  0 2.625 0  6 -2.625 0  0.3931307155906299 -0.01856779822591927 0  0.8549199714190221 -0.5218333744252657 0  0.7651723094668359 0.253768144801553 0  1.421989550604507 -2.133299471886336 0  1.582611957351803 -2.615166692128227 0  4.420331038793115 1.133144382396504 0  0.375 -3 0  0 -2.625 0  5.078156723571596 1.54697017071479 0  1.877250715260938 -1.288801575378032 0  2.409169073010687 -1.916147168931784 0  1.146151077069952 -0.268000681695328 0  1.726784828652036 0.1335728643263411 0  2.745628549924675 0.3838821021397905 0  3.011490900297165 2.613625569196862 0  5.62463365164608 -4.137655439684362e-05 0  1.875 3 0  1.125 3 0  6 0.375 0  2.625 3 0  6 -1.125 0  6 -0.375 0  4.875 -3 0  6 -1.875 0  3.375 -3 0  1.125 -3 0  0 -1.875 0  0 0.375 0  0 1.125 0  0 1.875 0  6 1.125 0  6 1.875 0  4.813017731148975 0.9677363687196439 0  2.807371623148303 2.264962208227767 0  0.3692953377255688 0.7436406761680247 0  5.615625 2.615625 0  0.9395725521479794 0.9812935874921043 0  1.390920759130215 1.238984550166515 0  0.9588795022085095 1.672288500195331 0  0.87712392565124 -2.641031728267331 0  0.3665732993114588 -1.532068934251388 0  1.841944504733106 1.591700334213738 0  4.832970185136452 0.3385359233091246 0  4.169083540479082 -0.5746148619765254 0  5.281697083409333 -0.2046640461936881 0  4.072845380968044 1.784516523483641 0  1.293029195762321 -1.543079049035419 0  4.878733886054284 -1.720697370582964 0  3.609167475697567 -1.687579152754035 0  4.836981942878573 2.222259978217028 0  4.204938267037067 -0.9128589669335569 0  5.183079748175263 -1.111742407358677 0  1.469404041858679 2.654509729682302 0  1.22880920402559 2.273525645756405 0  4.566761045622856 -1.414165869120005 0  4.531680518427715 1.606803989975667 0  1.918929241273175 2.27471131819245 0  3.590183783343969 2.184680610175416 0  1.85683899811842 0.4533569963423589 0  1.173935704088662 0.4636872214645547 0  2.116602160898525 -2.207718541460878 0  4.51821874648995 -1.042568353750147 0  2.721551512787618 -0.1859357475290837 0  5.294921875 2.001953125 0  5.288671874999999 2.670703125 0  2.199940744527116 0.7756512213396931 0  4.090519467638897 1.163401080812838 0  2.298177083333333 2.670581371753247 0  2.484362362207526 -2.687319997637033 0  3.300530569898859 1.207053005217563 0  3.936078051808127 -1.362164062673065 0  5.341218841330105 0.5689885832563615 0  4.226314635599414 0.5638853401248238 0  2.524510956818563 1.635483567726497 0  0.3219546452225031 1.389066019009203 0  3.139061555368706 -0.3133905221155423 0  3.145569907612562 -0.6461828528638952 0  3.701427442033566 -0.2272880199383185 0  1.686782510365738 -1.934662341426927 0  2.427696494631844 1.944064773844184 0  3.901817839425732 1.422433381251312 0  2.356489883772755 -0.2025512972825912 0  4.820757576351118 -0.01647699434507374 0  3.064415631228375 1.809719380809516 0  4.643002705009462 2.69782572459795 0  4.31624250429496 2.728112685900672 0  1.520100694408069 -1.314302747998057 0  3.754559308601717 -0.5375020107416889 0  0.25 -2.0625 0  0.8125 -1.826636904761905 0  4.861738621091127 -0.6367294570749906 0  1.545149590740081 2.015832101819233 0  3.857113324620078 0.04127675193819436 0  0.3162874907704933 -0.864918315983958 0  4.21293081604216 2.352874368135467 0  3.123697687162562 -2.708090473740421 0  3.415275466010259 -2.202892416689829 0  3.601103065320932 -2.727566580522146 0  1.558629964945672 -0.5289921609136927 0  3.324859026263307 -1.198136798699183 0  2.424350759683917 -1.092246517929194 0  2.789248065239812 0.8954629970670158 0  0.8882026075771248 2.364936378889839 0  0.8066140242673685 2.679750706449505 0  4.504454978490482 0.4491616076730165 0  4.26881784709759 -0.009649566552704852 0  1.313479173834523 -2.758675889510418 0  1.120577805361368 -2.179971784090952 0  3.734048623985226 0.8602850349907256 0  3.527828882622877 1.432983527791925 0  1.959527908877504 -1.578124930685265 0  0.7602573574724077 1.220872343399509 0  0.6691217533356228 0.8531987603309893 0  1.877213035764122 -2.564340152892596 0  3.304349402914068 2.552016594979913 0  4.285565286275464 -1.569057178671076 0  4.227521511146333 -1.876903861267543 0  5.34375 1.40625 0  5.71875 1.59375 0  1.56245959534423 0.766197796710638 0  0.2458241530773257 2.4375 0  0.2794123857609179 2.138568368155198 0  5.754175846922674 -2.4375 0  5.720587614239082 -2.138568368155198 0  0.6472458227887359 2.124973059628837 0  5.124241021325378 -2.352544055105642 0  5.189172233440652 -2.675873509996353 0  5.364643151640443 -2.12768524739804 0  2.298896485720138 1.348573610321417 0  0.6008689899200503 -2.745193425346304 0  0.307092513690391 -2.651812055231556 0  0.2683745826107009 -2.363146293324415 0  0.5223214285714285 -2.165178571428571 0  0.5169611136983336 2.740349995819724 0  5.607469108596883 -2.699891746740618 0  2.138439274270545 1.947386893596098 0  1.25507379660067 1.953406658386351 0  4.135759889512124 -2.476847355718572 0  2.548249345531056 -1.538893887888457 0  2.771010284190282 -2.05339728351
[...]
<CellData  Scalars="f_26-2"> 
<DataArray  type="Float64"  Name="f_26-2"  format="ascii">-3.1650113364362242e+03   -3.5114325394810708e+03   -5.2295182589157948e+03   -4.6366511723891463e+03   -5.1838765418280027e+03   -8.6167047338398370e+03   -3.1196234030917240e+03   -4.2443990214757031e+02   -3.9894407090076766e+02   -3.0999334769162651e+03   -2.3206525121772752e+03   -4.1829798234909113e+03   -1.6117097436473514e+03   -5.5780888066861216e+03   -4.8575456744964140e+02   -4.3988363058369741e+03   -5.0644268592354956e+03   -1.3201777983646548e+02   -3.9794100521555506e+03   -2.5010535077195868e+03   -7.1250495292534288e+03   -1.7808701826677329e+03   -4.6533645128395674e+03   -2.1611619124912563e+03   -3.1685086176119398e+03   -4.1612671118977050e+03   -6.9565692545114598e+03   -2.2434240899646784e+03   -2.5094767080890379e+03   -3.6186963762828955e+03   -1.9071981183389253e+03   -1.9456397700653451e+03   -3.4548014992421881e+03   -2.4698882706929107e+03   -2.8622813783496026e+03   -3.4771761403642449e+03   -4.7169195625027214e+03   8.5740357029042207e+02   -6.0329257861067508e+03   -3.9840330424998178e+03   -1.5494238905210093e+03   -3.7915750377110544e+03   -2.2854197857143376e+03   1.1438134537160749e+03   -1.0905163181412037e+04   -4.7965689023283821e+03   -6.8517995279352272e+03   -1.7175871917986265e+03   -3.2487306770459136e+03   5.6718390840430729e+01   -3.7431936430566257e+03   -2.4145152255612352e+03   -1.7150697025741320e+03   -3.8537075108964918e+03   -3.3407406614074680e+03   -3.0602048669360402e+03   -5.9317667370655108e+03   -4.3271185780350042e+03   -5.0572734414334241e+02   -4.7515564474503926e+03   -2.0702470623537961e+03   -3.3319376697993775e+03   -5.6218982268257032e+03   -2.8065145271489664e+03   -9.5228901227092354e+02   -3.9654856266728507e+03   -5.8509556885680986e+03   -6.7881704041599346e+02   -1.4195734152262896e+03   -4.0715442605707731e+03   -1.9206903833775682e+03   -1.8014948421380439e+02   -9.9810258800319218e+02   -3.2886382366349681e+03   -2.7751373107704026e+03   -4.0401107070793552e+02   -1.5898895199888282e+03   -2.9786203886844560e+03   -5.7195855432387361e+03   -9.4180687875796104e+02   -1.8400792569386197e+03   -2.7507553283176949e+03   -4.3997992775394696e+03   -7.6758359271742211e+03   -2.4846048620830156e+03   -4.0476308721583359e+03   -1.3818274375251540e+03   -3.7190142074146675e+03   -3.4211144950839976e+03   -3.5848296084248991e+03   -4.4464693625183972e+03   -3.8221101412601242e+03   -7.3353433214079978e+03   -7.7067024921909945e+02   5.7614554312241819e+02   -6.1243306744797273e+03   -2.4396825607746817e+02   -2.4460141969474571e+03   -2.1801466555752004e+03   -1.4584707013516477e+03   -1.9156986172737329e+03   -6.1969901873099161e+02   -2.0183901245325981e+03   -1.6354119358645371e+03   -3.9550607763694416e+03   -6.9359699126236501e+03   -5.4330141866201648e+03   -3.0484786187462173e+03   -5.7167263923366590e+02   -2.4528100623584946e+03   -2.1509874004573776e+03   -1.4605922887978977e+03   -1.6916952952573401e+03   -2.2122140396918189e+03   -3.1336790065325245e+03   -5.9166977783780449e+03   -7.7291438655293723e+03   -1.5177908816483102e+03   -1.8229297571392058e+03   -7.8770654952321611e+03   -3.7218423511972833e+02   -3.6800112302219263e+03   -3.6930606517717865e+03   -1.3060325057567854e+03   -2.9597855320754456e+03   -1.5819836655666145e+03   -1.0520630021538460e+04   -3.0729318756661855e+03   -8.1941779195884155e+03   -1.8691695372239972e+03   -2.5457106321634760e+03   -3.5349707714550032e+03   -3.8975145730243898e+03   -1.1508354937867289e+03   -3.2571345436655918e+02   -1.8328662506036626e+03   -3.7018347121600627e+03   -7.8598820582611088e+03   -1.0523271925093736e+03   -4.4932766580668640e+03   -2.0804732132712984e+03   -1.9984446132034334e+03   -5.0920723751043624e+03   -5.5508405877708446e+03   -6.2267314594036020e+02   -1.5106247505704197e+04   -3.9005452518280106e+02   -4.4861066794546414e+03   -2.5592650019680004e+03   -8.8413586978285457e+02   -2.0489015897333061e+03   -2.7881434662927240e+03   -3.1688008251005649e+03   -4.1080302283634473e+03   -3.5239222713361441e+03   -2.4862033903347260e+03   -3.8328694825623757e+03   3.9869539653922550e+02   -7.4365261613498487e+03   -1.5587272299472963e+03   -7.3029230887812582e+03   -2.3030394962453347e+03   -2.7723394930320183e+03   -6.8949136881301974e+03   -1.9182008970436675e+03   -5.6532889826814117e+03   -2.8490487271977609e+03   -5.1164920291582548e+03   -2.7978824590029403e+03   -1.8872035392547091e+03   -8.2003500462645422e+02   -1.2588507206494728e+03   -4.0458012213395623e+03   -1.0376192375281994e+03   -1.7028367120695650e+03   -5.8817353585072005e+03   -3.0437302387838990e+03   -2.2491117543205669e+03   -4.2419250096781543e+03   -1.3973474775208299e+03   -1.7357725564077280e+03   -4.6819230992138893e+02   -1.3936474942878701e+03   -2.1236115343618681e+03   -6.7769193205951524e+03   -6.7240720190371057e+03   -4.6977458332574370e+03   -3.6092222206495471e+03   2.2018550207904730e+02   -2.4858107665780435e+03   -1.1418275815062050e+03   -4.3458117515589529e+03   -7.8137200597246499e+02   -3.3890024377967738e+03   -6.8708153278913028e+02   -6.1953625186909794e+03   -5.1265628565869929e+03   -3.8427725410409626e+03   -1.2783722077707275e+03   -1.9597685160166341e+03   -3.8726547548435377e+02   -3.9794819085703534e+03   -4.6193172286462504e+03   -2.9293665585426979e+03   -4.3402654072943151e+03   -2.3623159235759322e+03   -9.1657316315010371e+02   -5.8731354516917481e+03   -2.5533033601921129e+03   -3.7384637103024957e+03   3.4560099247240873e+02   -1.5053319632571374e+03   -2.5760562664284730e+03   -5.5886384216446356e+02   -7.7376582174162650e+03   -3.0610045317275330e+03   -5.1809204808335280e+03   -2.0440212779880026e+03   -1.7216388896549715e+03   -6.5520074189814532e+03   -1.5662334191078903e+03   -4.6537952719707637e+03   -6.7414197223500314e+03   -3.2069423330754721e+03   -3.2829010272089154e+03   -3.0446020017983233e+03   -5.8581280495658064e+02   -1.6209678254617613e+03   1.0258178258323990e+03   -2.6211551039061728e+03   5.4718363641117513e+01   -6.3888611126829903e+02   -1.6984117465384159e+03   -2.2899900563572637e+03   -5.8988920225566635e+03   -6.1283275948365599e+03   -4.2296656021320587e+03   -1.4594930313561138e+03   -1.4543991178086542e+03   -1.3976967624833164e+03   -7.2931358370559224e+02   -3.0674397444821661e+03   -4.7721913996669846e+03   -1.6440188912243573e+03   -6.2098161720557664e+03   -2.1239485743412392e+03   -5.3431235174283620e+03   -1.7186493116435331e+03   -9.2018795474563740e+02   4.5129762586320612e+02   -9.2301905387379520e+02   -9.7310526823935004e+02   -3.7046573265721631e+03   -2.7637028360824825e+03   -1.6869650895421601e+03   -1.2427004774109491e+03   -1.5845287224237900e+03   -1.9455915179068563e+03   6.6702822826951456e+02   -2.4129764484473508e+03   -1.3643580495058611e+03   -6.4771335301560794e+03   -2.2382703528135935e+03   -3.3076871415730984e+03   -1.9615107590027426e+03   -2.9305884807299158e+03   -1.3605755296591510e+03   -2.2356217174668454e+03   -4.5598407490733734e+03   -2.8538264799770889e+02   -3.2380058419850843e+03   -4.5137392023640350e+03   -5.9250212344696783e+03   -5.1078452243443680e+03   -2.7931627368907414e+02   -1.1069092054292942e+03   -5.1102263861094320e+02   -4.0250167233799002e+03   -2.2257204584104911e+03   -1.0686596111464287e+03   -2.6945463128291576e+03   -5.1602945758008218e+02   -4.2267157873678461e+03   -2.3457316704651257e+03   -1.0013805489666588e+03   -7.3523562970973228e+02   -3.0613608171092242e+03   -3.0864251617361638e+03   -2.1921029864617349e+03   2.1986343079236221e+02   -3.7164177268028043e+03   -3.9266389656508095e+03   5.3134061802203995e+01   -1.3034519147173194e+03   -1.4593149928628354e+03   -2.6844461122049070e+03   -2.6975912598004456e+03   -6.4113331225827335e+02   -3.1520564057969191e+03   -8.0404209100194412e+03   -3.6836702201562584e+03   -2.5206001851500068e+03   -3.2744556737717294e+03   -2.1037388838803945e+03   -1.1103825078062202e+03   -1.2867086200428823e+03   -4.0899769430742949e+03   -4.4381040546886345e+02   -2.1851421367405237e+03   -1.5019707114910307e+03   -1.9491895328592968e+03   -2.2915791262816324e+03   -4.5969888974774840e+03   -2.1732469205424122e+03   -2.8004217374519940e+03   -2.1144775641148121e+03   -2.7620873093980194e+03   -3.4610676391441448e+03   -2.3728008685308132e+03   -5.2679344992129818e+03   -6.3168409174042736e+03   -1.9437285075138316e+03   -2.8252033623138777e+03   -4.6945704549818565e+03   -1.7857907571652447e+03   -2.7146970732633167e+03   -2.6191242395322406e+03   -3.9816689305748073e+03   -3.8807225129189110e+03   2.6633154257463275e+02   -4.1167092306163177e+03   -2.9204487357664902e+03   -3.2643316883597831e+03   -3.7573106269488862e+03   -3.2956269506727044e+03   -5.0265602145587745e+03   -1.4298255968840870e+03   -1.0611174711504732e+03   -2.4176272696613173e+03   -3.4880314952957865e+03   -9.6248198387505761e+02   -1.9654558073626749e+03   -1.9617904050963598e+03   -1.4270576942859059e+03   -1.1872852603440574e+03   -3.8131146888413396e+03   -1.8072815501055325e+03   -9.6072255691141117e+02   -3.3157369758454388e+03   -1.8598449263283690e+03   -1.8601917503812042e+03   -1.9468883169129074e+03   1.7172149955011075e+03   -4.2902684354593302e+03   -4.6833683847534248e+03   -1.4646368900723010e+03   -2.2817758310149816e+03   -1.4913297834314999e+03   -9.5809619117485545e+02   -1.5859874517725157e+03   -9.7906747012140818e+02   -4.6498110541463602e+03   6.1057060111717831e+01   -3.1302628717120961e+03   -1.1946658837699638e+03   -3.1982126994507548e+03   -5.5556332581173147e+03   -6.8084512589729775e+03   -3.0443194038215202e+03   -7.3298101567402027e+03   -1.9692776655823493e+03   -4.8912905621515765e+03   -1.2885139805185390e+03   -2.9992433903554088e+03   -1.7988789745419349e+03   -2.1928780255430452e+03   -3.5132312555536919e+03   -1.5613619479030792e+03   -4.3097273589868755e+03   -2.5986041712118144e+03   -1.3035238518762030e+03   -1.0386337921640290e+03   -2.8980080510206094e+03   -9.4285260037510989e+02   -3.2118011938721779e+03   8.7552606084262140e+02   -3.0666856098940011e+03   -2.5437593614994562e+03   1.0485712428453912e+03   -3.2533719341866004e+03   -1.3707348728973577e+03   -2.4179798052696156e+03   -2.6144233874506704e+03   -4.5197865069637346e+03   -2.9475220603855096e+03   -2.0588686093946717e+03   7.6142111779995628e+02   -5.9709802461220315e+03   -2.7213592163180197e+03   -2.4898747494788695e+03   -3.1040555103506595e+03   -1.4741867299920773e+03   -6.8628809510401175e+02   -2.1580640614508520e+03   -2.9776337982129712e+03   -7.0722810759843132e+03   -3.0862680456910407e+03   -1.0453303962846765e+04   -3.0940627681624555e+03   -6.2123217949300315e+03   4.4837298857336560e+02   -2.7524100600656866e+03   -3.2215986002976351e+03   -6.1807185660061975e+02   -1.0274013935121934e+03   -3.4161292643926372e+03   -4.5384608909887274e+03   -6.1807667641781063e+02   -1.0078654480734092e+03   -1.8052560693121059e+03   -2.4045558864212535e+03   -4.5544124411459197e+03   -2.0074807606476734e+03   -6.7357659828887927e+03   -1.4470334854288437e+03   -1.7119018849529689e+03   -2.4306695736174406e+03   -7.1805077242484231e+02   7.1061558824998349e+02   -3.4819395576337756e+03   -2.2123925160680892e+03   -2.6868225452780348e+03   -1.5316655917430567e+03   -2.3086288446655485e+03   -2.2952044355192459e+02   -5.5693963850623904e+03   -3.7373314721657852e+02   -8.2958950269539923e+02   -1.8428813063697360e+03   -2.8366196691749519e+01   -4.4433380298949678e+03   -4.4510827860612253e+03   -1.8974302661667741e+03   -5.3284580730837333e+03   -5.9467290575738807e+03   -3.4284384699532561e+03   -1.1155657724566775e+03   -2.6849554533380056e+03   -2.3242180685307567e+03   -2.8099895501350306e+03   -1.2085401787576725e+03   -4.9504285693582078e+03   -4.3079659259201508e+03   -3.6148937645950232e+03   -3.0119768519986737e+03   -2.2562624554036341e+02   -5.7450282214079898e+03   -2.9505113265955292e+03   -3.5950323257736463e+03   -2.2367363766901067e+03   -4.7648537515689195e+03   -1.1862415584261848e+03   -1.2957966061548523e+03   -5.3310732773768189e+02   5.0197880368701152e+02   -4.4969046555258528e+03   -2.7684193844412521e+03   -4.6787217639904193e+03   -9.2380470454454735e+03   -3.6245838808554468e+03   -2.0035918651047330e+03   -1.6172720822382689e+03   -7.6119837495834770e+02   -2.3547254077929488e+03   -4.5700873293919731e+03   -1.6296807817111301e+03   -3.0743108923793930e+03   -1.9734782914034229e+03   -2.4908932531266187e+03   -1.6841863574592289e+03   -6.2003276238506423e+03   -3.4618792882231164e+03   -3.5205484834159015e+03   -2.2442260421220390e+03   -3.1828849931930840e+03   -9.1882756900425029e+03   -3.6335375122567093e+03   -3.1806036574990862e+03   -1.9567352286106370e+03   -1.8362097077691492e+03   -2.0789356082849386e+03   -1.1065477537619151e+03   -1.7116793575177437e+03   -6.7463627739452613e+02   -1.1654314742524539e+03   -2.4466609607977039e+03   -5.2416348384695875e+03   3.3351130160231816e+02   3.3519048926015307e+03   -2.5129248784410624e+03   -5.1047647818907819e+02   -2.8402250876960507e+03   -2.1591145449694882e+03   -1.3722984095636923e+03   -3.6487768491253723e+03   -4.1581049068176671e+03   -7.5011817605133483e+03   -1.0681516002079884e+03   -2.2719658999554786e+03   -2.3653685682481782e+03   -9.3361623281797790e+01   5.2376666375594868e+02   -5.0684731341881907e+03   -3.5882556708815139e+02   -1.4028376220444445e+03   -4.6673566369570626e+03   -4.9884568751170655e+03   -3.9172246725838268e+03   -1.1604432366447593e+02   -5.3253752659321344e+03   -2.4491552099672813e+03   -6.0197349054341776e+03   -1.8847682310143875e+02   -7.6101767915904850e+02   -2.0096612968855436e+03   -1.9995912877693322e+03   -5.5068042807128031e+03   -3.1187509981081844e+03   -1.0515857643191785e+03   -1.3694315023796796e+03   -3.9471798951080204e+03   -8.6764457906746634e+02   -1.0778323852777946e+03   -1.1913166171620723e+01   7.7530488477090751e+02   -4.3025769186018874e+02   -2.3014788038958036e+03   -4.0423179743417195e+03   -8.2729988941027277e+03   -1.7781963738797538e+03   -1.1916032061714327e+03   -1.0938492689916545e+03   -5.4833785907979400e+03   -3.4754358001570122e+03   1.8763359533777068e+03   -2.3893364684772259e+03   -1.0915600823793100e+03   -3.0242422440502646e+03   -3.5204169032054174e+03   -3.1950167255912147e+03   -3.1300839703679208e+03   -2.5336914904543191e+03   -4.3172260622975837e+03   -2.2396925702308372e+03   -2.6436568034527836e+03   5.7508064145444280e+02   -2.8417958327762040e+03   -2.5672851573882290e+03   -3.4586368846049099e+03   -5.5496465672240738e+03   -1.6679875726613514e+03   -1.3909998016960471e+03   -3.1128613847448232e+03   -1.5489742220787689e+03   -4.9343482462405318e+03   -2.7083070960178575e+03   -3.8952761884245497e+03   -7.2489766637165232e+01   -1.3266679418292426e+03   -1.7720743157582306e+03   -1.4155326243320062e+03   -1.3262045551898907e+03   -2.0737418016562779e+03   -2.4593533457376138e+03   -1.9854449159213605e+03   -3.7298306634248815e+03   -5.9209227598623565e+03   -2.1886307810270358e+02   -3.8641323448294474e+03   -1.6974193684158729e+03   -2.2035699152226521e+03   -2.8677281176793740e+03   -6.5615452311911149e+03   -1.7393272191781291e+03   -4.7611783768919031e+03   -1.5061552627281396e+03   -2.4876916979842549e+03   -7.3434974338929817e+02   -3.8773219547602151e+00   -2.5718534651987793e+03   -2.4695143189467653e+03   -4.4602900875722271e+03   -4.9073805036351251e+02   -5.7593177757659578e+02   -1.0974508468300467e+03   -2.5959889881959575e+03   -3.9933567534003291e+03   -7.9403652752548114e+03   -5.9728137024504053e+02   -8.8594717072000299e+02   -2.8403651795181663e+03   -1.9427577754456472e+03   -5.0893405634707806e+03   -1.9554826641267848e+03   -3.2307123597404411e+03   -8.4852334620413444e+02   -6.6884488154749179e+03   -3.8872089885972850e+03   -2.9811289892439495e+03   -4.2433723260955685e+03   -3.2423847120354167e+03   -2.5592357476397956e+03   -1.2650798696057836e+03   -1.6464300473258345e+03   -2.1511229129221742e+03   -2.6936596646953517e+03   -2.5852956423699620e+03   -1.2224030316898836e+03   -2.2686772305368395e+03   -3.2737227943966468e+03   -2.6349472958760243e+03   -3.5644486461264836e+02   -3.3216268762542604e+03   -2.4145239222663918e+03   -3.2475972651150455e+03   -4.2090860357331216e+01   -1.3312471930957747e+03   -3.4218595892508060e+03   -6.8201839749517399e+02   -1.7244193179989024e+03   -3.7598226459867573e+02   -1.4208208838795661e+03   -1.9300532833986881e+03   -4.1537181087234802e+02   -8.6528126403049134e+02   -5.0158816167409359e+03   -2.5874292309250518e+03   -1.7773260358518471e+03   -2.2074079452934639e+03   -2.4023373051802023e+03   -3.2463532348892741e+03   -1.4749315996835755e+03   2.8947560577970172e+01   1.9669625920128496e+02   -1.7106720889381913e+03   -1.6182318710564610e+02   -1.3653266807576792e+03   9.4754497424159169e+01   -2.5707313326274821e+03   -2.2310377929534702e+03   -1.1588374084722215e+01   -1.4178710954883325e+03   -2.2423897025244246e+03   -1.2020528135728064e+03   -1.7669032825852064e+03   -2.9512797440541653e+03   -4.0350299306743104e+03   -1.3532691136454755e+03   -5.4669817760017440e+03   -3.1362517621528159e+03   -1.5963250188876546e+03   -5.2565584446369194e+03   -3.5671360829911619e+03   -4.0043310822663648e+02   -6.1578421311128231e+01   -1.8020747463907385e+03   -4.2949237134131008e+03   -2.4076157879301913e+03   -1.7036026671877164e+03   -2.4437154403470163e+02   -1.1724406928203716e+03   -2.2477431650959588e+03   -1.1436999147005606e+03   -2.7203514735955474e+02   7.9488585130835395e+02   -1.5082016264863041e+03   -2.1707681303552463e+03   -5.0401890420847678e+02   -4.6135801180821812e+02   -3.5384353883504873e+03   1.7966568205618952e+02   -2.6826967035171187e+03   -3.0331111907907524e+02   -2.8990569725991995e+03   -2.2347886830787797e+03   -1.9376220323525190e+03   -1.8976137545268459e+03   -3.8117870552877139e+02   -1.8835757360091504e+03   -6.0027126368421818e+02   1.6790518176225984e+01   2.7382096832992818e+02   6.6982918231303768e+02   -3.7720314191929519e+03   -1.6521943967716791e+03   -2.0929350982246879e+03   -4.5756384106860224e+02   1.1673530252479447e+03   -1.6164344406505411e+03   -5.7019887058849017e+03   -2.0401138322304032e+03   -2.3705320934296346e+03   -2.5618964683262629e+03   9.9051391744810090e+01   -5.4006749882233191e+02   7.9463762804769874e+02   -1.7025752004841997e+03   -1.6536242689578685e+03   -3.0277440108252813e+03   -3.2319135514921859e+03   -3.1935314125457276e+03   -4.2997308259654910e+03   -2.5676334378591173e+03   -3.0017826786100868e+03   -3.9230926751324428e+03   -5.5902285206518964e+03   -3.6579633227976765e+03   -1.7307111955050807e+03   -2.8872880694720284e+03   -4.1900192887799467e+03   -7.4748309821359499e+02   -2.2093769829406224e+03   -1.8762345543709098e+03   -2.6351665101255121e+03   -1.7442358862530184e+03   -7.4638805250040505e+01   -3.3699557247318203e+03   -6.8709267207831454e+03   -2.5503677853553295e+03   -8.5320971725527863e+02   -3.1373188187383912e+03   -1.0661304495468045e+01   -9.7669410594960618e+02   -4.7396398814266888e+02   4.4962626527912931e+02   -8.5597126806383619e+02   -4.2920242805508366e+02   -2.9861082724401881e+03   -2.8815042078891174e+03   -3.7035570277444634e+02   -1.9993514735176723e+03   -3.6671618207482566e+03   9.0827233471249929e+02   2.4759109862354403e+03   -3.1319199925962885e+03   1.9836462617241068e+03   -2.6604200289770033e+03   -3.2311170957108893e+03   -9.2892725824767933e+02   3.0022307545786794e+02   -5.0645165576148956e+03   -1.7803887974236650e+03   2.0439498283096686e+01   -2.8797395021063717e+03   -2.2385481163353825e+03   -3.5349308291645377e+02   -4.8903524327243431e+03   -2.5247069184512252e+03   -5.1805958893741558e+02   -1.4980730516339224e+03   -6.5273099329014474e+02   -1.3833384051244959e+03   -2.2562673793377558e+03   -1.4602454310786022e+03   -4.0754293301165530e+03   -8.3335239551552775e+02   -2.4620389932900918e+02   -3.053663455963