<?xml version="1.0"?>
<VTKFile type="UnstructuredGrid"  version="0.1"  >
<UnstructuredGrid>
<Piece  NumberOfPoints="2534" NumberOfCells="4892">
<Points>
<DataArray  type="Float64"  NumberOfComponents="3"  format="ascii">0 3 0  0 -3 0  6 -3 0  6 3 0  3 -3 0  6 0 0  3 3 0  0 0 0  3 0 0  0 -1.5 0  1.5 -3 0  1.5 3 0  0 1.5 0  6 -1.5 0  4.5 -3 0  6 1.5 0  4.5 3 0  4.25 -1.25 0  1.75 1.25 0  2.25 -1.5 0  4.5 0.75 0  1.541666666666667 -0.2083333333333333 0  3.219827586206896 1.521551724137931 0  1.125 -1.875 0  4.875 1.875 0  0.8702651515151515 0.631628787878788 0  2.25 2.214285714285714 0  3.316176470588236 -1.904411764705882 0  5.214285714285714 -0.75 0  5.03125 -2.03125 0  0.96875 2.03125 0  4.041666666666667 -0.2083333333333333 0  0.8205128205128206 -0.9134615384615387 0  3.942582294752138 2.189194098250713 0  3.061487638533674 -0.968243819266837 0  2.192708333333333 0.4427083333333334 0  4.157850026972511 -2.182329047049442 0  2.331456616463011 -0.5285296485744057 0  3.654761904761905 0.5654761904761902 0  5.25 1.125 0  2.563673341677096 -2.280663329161452 0  5.126674107142857 0.1283482142857142 0  0.75 -3 0  0 -2.25 0  6 2.25 0  5.25 3 0  0.7680051888903191 -0.1384245958639337 0  1.617229471026718 -1.006949429867069 0  4.218940341429579 1.468686552856807 0  3.75 -3 0  2.25 -3 0  0.75 3 0  5.25 -3 0  6 -0.75 0  0 -0.75 0  0 0.75 0  2.25 3 0  6 -2.25 0  0 2.25 0  3.75 3 0  6 0.75 0  1.787573018358365 -2.279142327213878 0  3.195025188237337 2.273430909158844 0  2.528159645294386 1.151699106559287 0  1.041598427383826 1.322848427383826 0  1.520951704545454 0.4634232954545453 0  1.580357142857143 2.325892857142857 0  4.919642857142857 -1.361607142857143 0  4.54981623521892 -0.6483700862895494 0  2.99317863826574 0.6697091957925523 0  3.450169349029507 -0.4574865881858001 0  3.605016126014028 -1.323102984840902 0  2.745144658907412 1.882241931337371 0  0.4898065586600511 1.092777516238393 0  0.5 -1.875 0  1.217028489597945 -2.469323836800685 0  1.659912685567181 -1.604738056701542 0  5.4375 1.6875 0  5.34375 2.34375 0  4.52741779500503 2.384139265001677 0  3.375 -2.514804579549941 0  0.5446428571428571 -2.455357142857143 0  2.766554087216865 -1.745795909102064 0  4.525516559010988 0.1490283123570637 0  3.87554132162248 -0.8280516069565407 0  4.53622906132958 -1.76963146596888 0  0.4243951612903226 1.875 0  0.554851858345021 2.446861709948876 0  5.575604838709677 -1.875 0  5.445148141654979 -2.446861709948876 0  4.875 -2.575604838709677 0  1.440573466105381 1.721823466105381 0  2.193519495405082 1.631799415080963 0  5.472630128027442 -1.330813078900983 0  4.750126894286386 1.343813447143193 0  5.607142857142857 -0.375 0  2.625 2.607142857142857 0  0.3921763197810531 0.375 0  5.60901753622775 0.3750000000000001 0  1.125 2.613454943235572 0  3.701856738980915 1.163867513386733 0  3.736112850688509 1.696746876851408 0  3.519183195491339 0.06065128742606851 0  3.973620778217027 -1.693401606145563 0  0.8125 -1.444978632478633 0  1.256657745408029 -0.6381828923025001 0  0 -1.125 0  5.019997778514942 0.6475044429701156 0  4.125 3 0  1.285569332703024 0.8955310332120207 0  0 -0.375 0  0.4638922275641027 -0.5625 0  2.056635259780241 -0.07226025978024064 0  2.130475508371123 -1.000827820434028 0  2.677484372338113 -1.267299126394495 0  2.848680878891876 -0.4956836878192376 0  4.937901885089369 -0.3340245904575954 0  4.393563081308854 1.919544166973803 0  4.053859126323572 0.2813938488760716 0  1.181051704329518 0.1167440895674965 0  1.971354166666667 2.607142857142857 0  4.875 3 0  2.519350561152006 0.08093582719875507 0  3.139443301924015 -1.442524927271905 0  6 2.625 0  1.849169256239503 1.945480934753207 0  1.867196483071171 0.7892354369530077 0  1.192506522009051 -1.184888428863342 0  3.375 3 0  3.603234392481833 2.536866305538572 0  3.846752908916648 -2.537707634073423 0  2.014339897513945 -1.886932065281681 0  4.038392037966526 0.8363324773944992 0  4.421242701722609 -2.552534687860327 0  3.715389848650903 -2.108856956172843 0  2.985668138820625 1.127780908772207 0  0.4500794934449803 -1.173696061598557 0  3.366760888116476 0.8891914618875614 0  1.869163043700093 -0.6107175804171328 0  2.175114838273305 -2.53928723780967 0  3.014417665538299 -2.241523065744933 0  2.625 -3 0  2.819968145332426 -2.617202329573456 0  5.625 1.3125 0  5.563263538826679 0.814027077653358 0  5.625 3 0  2.550041671270923 0.7074928970804664 0  4.014583091741168 2.59891853892166 0  0.6440729668673318 1.499523832583132 0  5.219449799568244 -1.660557808485412 0  3.474012636702472 -0.9300738420779746 0  0.8125 -2.142857142857143 0  1.875 -3 0  4.945010515846405 2.554471797033147 0  2.611388969012422 -0.8478354915063726 0  3.223746055611014 0.3371683159691745 0  4.843939757110898 -0.9483610977948225 0  4.66556954816842 -2.220888354477256 0  4.125 -3 0  4.448108395110625 -0.2524000502731018 0  5.63671875 2.05078125 0  2.822484133964224 1.491327727709286 0  3.378213092764193 1.903125093887009 0  5.607142857142858 -0.9231200445788541 0  2.12639693023183 1.100450516019641 0  5.625 -3 0  0.375 3 0  0 2.625 0  6 -2.625 0  0.3931307155906299 -0.01856779822591927 0  0.8549199714190221 -0.5218333744252657 0  0.7651723094668359 0.253768144801553 0  1.421989550604507 -2.133299471886336 0  1.582611957351803 -2.615166692128227 0  4.420331038793115 1.133144382396504 0  0.375 -3 0  0 -2.625 0  5.078156723571596 1.54697017071479 0  1.877250715260938 -1.288801575378032 0  2.409169073010687 -1.916147168931784 0  1.146151077069952 -0.268000681695328 0  1.726784828652036 0.1335728643263411 0  2.745628549924675 0.3838821021397905 0  3.011490900297165 2.613625569196862 0  5.62463365164608 -4.137655439684362e-05 0  1.875 3 0  1.125 3 0  6 0.375 0  2.625 3 0  6 -1.125 0  6 -0.375 0  4.875 -3 0  6 -1.875 0  3.375 -3 0  1.125 -3 0  0 -1.875 0  0 0.375 0  0 1.125 0  0 1.875 0  6 1.125 0  6 1.875 0  4.813017731148975 0.9677363687196439 0  2.807371623148303 2.264962208227767 0  0.3692953377255688 0.7436406761680247 0  5.615625 2.615625 0  0.9395725521479794 0.9812935874921043 0  1.390920759130215 1.238984550166515 0  0.9588795022085095 1.672288500195331 0  0.87712392565124 -2.641031728267331 0  0.3665732993114588 -1.532068934251388 0  1.841944504733106 1.591700334213738 0  4.832970185136452 0.3385359233091246 0  4.169083540479082 -0.5746148619765254 0  5.281697083409333 -0.2046640461936881 0  4.072845380968044 1.784516523483641 0  1.293029195762321 -1.543079049035419 0  4.878733886054284 -1.720697370582964 0  3.609167475697567 -1.687579152754035 0  4.836981942878573 2.222259978217028 0  4.204938267037067 -0.9128589669335569 0  5.183079748175263 -1.111742407358677 0  1.469404041858679 2.654509729682302 0  1.22880920402559 2.273525645756405 0  4.566761045622856 -1.414165869120005 0  4.531680518427715 1.606803989975667 0  1.918929241273175 2.27471131819245 0  3.590183783343969 2.184680610175416 0  1.85683899811842 0.4533569963423589 0  1.173935704088662 0.4636872214645547 0  2.116602160898525 -2.207718541460878 0  4.51821874648995 -1.042568353750147 0  2.721551512787618 -0.1859357475290837 0  5.294921875 2.001953125 0  5.288671874999999 2.670703125 0  2.199940744527116 0.7756512213396931 0  4.090519467638897 1.163401080812838 0  2.298177083333333 2.670581371753247 0  2.484362362207526 -2.687319997637033 0  3.300530569898859 1.207053005217563 0  3.936078051808127 -1.362164062673065 0  5.341218841330105 0.5689885832563615 0  4.226314635599414 0.5638853401248238 0  2.524510956818563 1.635483567726497 0  0.3219546452225031 1.389066019009203 0  3.139061555368706 -0.3133905221155423 0  3.145569907612562 -0.6461828528638952 0  3.701427442033566 -0.2272880199383185 0  1.686782510365738 -1.934662341426927 0  2.427696494631844 1.944064773844184 0  3.901817839425732 1.422433381251312 0  2.356489883772755 -0.2025512972825912 0  4.820757576351118 -0.01647699434507374 0  3.064415631228375 1.809719380809516 0  4.643002705009462 2.69782572459795 0  4.31624250429496 2.728112685900672 0  1.520100694408069 -1.314302747998057 0  3.754559308601717 -0.5375020107416889 0  0.25 -2.0625 0  0.8125 -1.826636904761905 0  4.861738621091127 -0.6367294570749906 0  1.545149590740081 2.015832101819233 0  3.857113324620078 0.04127675193819436 0  0.3162874907704933 -0.864918315983958 0  4.21293081604216 2.352874368135467 0  3.123697687162562 -2.708090473740421 0  3.415275466010259 -2.202892416689829 0  3.601103065320932 -2.727566580522146 0  1.558629964945672 -0.5289921609136927 0  3.324859026263307 -1.198136798699183 0  2.424350759683917 -1.092246517929194 0  2.789248065239812 0.8954629970670158 0  0.8882026075771248 2.364936378889839 0  0.8066140242673685 2.679750706449505 0  4.504454978490482 0.4491616076730165 0  4.26881784709759 -0.009649566552704852 0  1.313479173834523 -2.758675889510418 0  1.120577805361368 -2.179971784090952 0  3.734048623985226 0.8602850349907256 0  3.527828882622877 1.432983527791925 0  1.959527908877504 -1.578124930685265 0  0.7602573574724077 1.220872343399509 0  0.6691217533356228 0.8531987603309893 0  1.877213035764122 -2.564340152892596 0  3.304349402914068 2.552016594979913 0  4.285565286275464 -1.569057178671076 0  4.227521511146333 -1.876903861267543 0  5.34375 1.40625 0  5.71875 1.59375 0  1.56245959534423 0.766197796710638 0  0.2458241530773257 2.4375 0  0.2794123857609179 2.138568368155198 0  5.754175846922674 -2.4375 0  5.720587614239082 -2.138568368155198 0  0.6472458227887359 2.124973059628837 0  5.124241021325378 -2.352544055105642 0  5.189172233440652 -2.675873509996353 0  5.364643151640443 -2.12768524739804 0  2.298896485720138 1.348573610321417 0  0.6008689899200503 -2.745193425346304 0  0.307092513690391 -2.651812055231556 0  0.2683745826107009 -2.363146293324415 0  0.5223214285714285 -2.165178571428571 0  0.5169611136983336 2.740349995819724 0  5.607469108596883 -2.699891746740618 0  2.138439274270545 1.947386893596098 0  1.25507379660067 1.953406658386351 0  4.135759889512124 -2.476847355718572 0  2.548249345531056 -1.538893887888457 0  2.771010284190282 -2.05339728351
[...]
<CellData  Scalars="f_26-2"> 
<DataArray  type="Float64"  Name="f_26-2"  format="ascii">6.7329636858241882e+17   -2.5499988121074084e+18   3.1566529111231831e+18   -8.7873083457859686e+17   -7.7152877995343642e+17   7.0351363900169728e+17   4.0581787144896954e+17   8.8199783753255328e+16   -4.5255546516654438e+18   1.1336109862234792e+17   1.0615846030274808e+16   2.2288416631734098e+18   -3.0109545195874309e+18   2.2566636906568883e+18   5.2400431355374428e+18   -7.2883617231250368e+17   -1.9087799044988690e+18   1.4441310460160471e+18   -3.2672680602911923e+17   2.1853397965079183e+18   2.0439202515319037e+18   -8.0375466936436877e+17   -2.3382208028131599e+18   -3.8824358354725806e+18   1.0659653601190255e+18   -1.7600528370147610e+18   -7.5668226757649754e+17   1.8497564873578033e+18   1.3105868265316744e+17   -2.3443026639010099e+18   -2.5452660091164815e+18   -5.1086075247096678e+18   -1.8727044246189624e+18   -3.2972498392461005e+18   -2.6146942760401147e+18   1.0281470424073327e+18   8.4676941249492224e+16   -6.2059911558715046e+17   -2.4996871442476124e+18   1.2550146992516040e+18   7.1080715868472691e+17   1.3721335065752901e+18   3.2685965647478467e+18   3.7436275459778959e+18   1.1423510079261021e+18   2.5283510021646100e+18   3.1344579257331415e+18   -2.9878258853391340e+18   3.4419777216722652e+18   2.8026600885705759e+18   2.7685494001798810e+18   -2.4317038855814506e+17   -1.6541126028033920e+18   1.4923044459724731e+18   5.5162870435269773e+17   2.6263866270813292e+18   1.0218045747327981e+18   3.7512905155343969e+18   -4.2458017721435034e+18   -8.6584550429428915e+17   1.5317514033469727e+18   -5.5436295288802724e+18   6.1008611258107981e+17   4.7389801299952314e+17   -2.2699563748733983e+18   3.4030109561622278e+17   -6.3452649066973112e+18   -2.6561641018503316e+18   2.5204412626765824e+18   -1.6666769740606543e+18   2.8000600227145518e+18   -5.9655204292499994e+17   -2.7672288063140767e+18   -2.0113108237817021e+18   6.3603029541336678e+17   -1.5720479736474097e+18   8.6886883295417280e+17   1.5243431548216205e+18   -9.8081096744564506e+17   -3.6169937160091310e+18   -4.6846020030435373e+17   -3.3436445578738918e+17   6.5806928087014490e+17   2.3868268378363622e+18   -1.9335339731029460e+18   4.7082960916450427e+18   -4.3769270601366720e+17   -1.5382575417339105e+18   1.8079717367966628e+18   2.3519167563795466e+18   -3.5121555027101926e+18   -1.0013249484178047e+18   -7.8495067408448653e+17   -8.7951132083552416e+16   -5.8083097956109402e+17   -2.0362105455669486e+18   -1.5488090683802724e+18   2.3951319462617364e+18   9.3316705620280768e+17   -2.3871276031241734e+17   3.2232085984081848e+18   2.7267244230954102e+18   1.6122428114060358e+17   -8.4966701148333136e+16   -1.5739457635970022e+18   -5.0128229621543485e+18   -1.1714020311013949e+18   -1.1955146364159542e+18   6.9495551051702579e+17   5.9737664702479949e+17   -1.1628063486345086e+17   1.7179527964527229e+18   -5.2510843795922362e+17   2.5348394352770877e+17   -7.5289838169682381e+18   -2.7429095962098524e+18   2.9777084669587213e+17   2.4258221925358435e+17   -2.2101125870015046e+17   -3.2869004937686093e+18   1.7035153887480189e+18   -8.6657239303809306e+17   1.6031993391171651e+18   -5.0785520189426336e+17   -1.2807108103423946e+18   -3.0770962426414131e+18   1.6285362477890138e+18   1.4474219916684054e+17   -5.4404183244848292e+18   -2.0562270970775575e+18   -1.7953350829176965e+18   -1.3462209720755013e+18   -3.3589446944221430e+18   -8.0334983302188262e+17   -1.7420184958342835e+18   -3.8861720145380019e+17   4.9131269735862096e+16   -8.8001686464449408e+16   -8.8120586744897843e+17   -1.1101955298104851e+17   -4.8829752232852128e+17   1.2990765751667704e+18   3.6822485248713585e+18   9.1921598729997056e+17   -2.9286596000849372e+18   -5.1685905795524646e+17   1.2862918601334497e+18   -2.3914029300400061e+18   -1.4614591728352863e+18   1.1078359029850659e+18   -1.6690671591346550e+18   3.6543633618379955e+17   6.7653503304527680e+17   7.5015834397231219e+17   1.4977831143727885e+18   1.0142629356412182e+18   1.8156149191248809e+18   -1.0785256901105298e+16   2.4190642543760804e+18   1.3744893544596751e+18   -2.3920667606285290e+17   3.4658564096549002e+18   4.0282593818946104e+18   -2.0630797556825326e+18   1.6701579815558021e+18   7.8296414515063334e+17   -2.8750335222907603e+17   -1.7195338358723709e+18   -2.1994463309697907e+18   2.0925040590959206e+17   3.8655515271623443e+17   -1.1950826499023270e+18   -2.7452683391504143e+18   5.0079329877955475e+17   -1.3213432853213727e+18   -6.7671450471558580e+15   -5.8941919339287532e+18   -2.6211872763221898e+18   -2.9756154237949604e+18   3.0033916446521395e+17   8.4924311405936166e+17   -2.9438965019707110e+18   2.8557207519165143e+18   -9.8973893408017728e+17   -5.4479777169468973e+17   -1.6149410508785702e+17   -2.6224056725102904e+18   -1.8527343173255424e+16   -2.4062028634322447e+18   3.3580127380978528e+17   1.8059734955043472e+17   -3.8465724260027474e+18   -3.9848539628158735e+18   4.3307990626100951e+18   1.6788674605956503e+18   2.2915308529031782e+18   -1.9809670939996029e+17   1.6381245915961457e+18   -2.1144658177166392e+18   -4.7529008115123808e+17   -2.2550175544144330e+18   -4.4127730847409325e+17   9.3959346827891981e+17   1.1238056866424305e+18   1.5422553795682004e+18   2.5496963797850362e+17   -4.9336487589668342e+18   2.4346671310371328e+17   -4.3657751257022249e+18   -2.2466922156484677e+18   2.5857128173677184e+18   3.5327540167210685e+18   2.7908631573753747e+17   -1.1970199356242739e+18   2.5565498486066836e+18   -3.1084822580091856e+16   1.3983122147571894e+18   9.3253913447328205e+17   4.3151030215812449e+18   -1.3026014671404398e+18   -2.6660018513922714e+17   -3.7773287843952261e+18   -3.2377226139167611e+18   4.8631414505233158e+17   -5.8155733498219376e+16   6.9247996151808038e+17   1.2747931111240852e+18   1.1748803475448712e+18   5.5179713878727208e+16   3.0186427092899348e+18   3.1083729593359427e+18   -2.8919616995751567e+18   -4.5179098562555228e+18   -1.3539499642336033e+18   -1.7817698813698954e+18   -1.3724568427137574e+18   2.1062227793433989e+18   9.5389800561103309e+17   -2.2570164344698598e+18   -7.9877243414138330e+17   -1.7609140980168653e+18   -6.3736861778160896e+17   1.2569981097595866e+18   6.8532177199380147e+17   -1.8547361681102277e+18   1.1047142580777967e+18   -3.5367043497441659e+18   8.9261502660050458e+17   -1.3198647027990034e+18   7.7522794550670688e+16   -1.8031069788046418e+18   -3.6031611388980854e+18   3.9199309379266208e+16   1.9000753582915011e+18   -3.4715581049332419e+18   -2.0142865366885921e+18   3.5255066294576858e+17   -5.6210209310846362e+18   -1.4170349609817114e+18   -1.1715660590999987e+18   4.2694874381188086e+18   1.6472059440153533e+18   2.1800744481807442e+18   1.1978795271641802e+18   3.8891267784863887e+18   3.2825617014937979e+18   3.5133838189383465e+18   -1.9087162083875453e+18   -5.1251635990217513e+18   1.3467452574372232e+18   2.5734718151912428e+18   -2.4367895851206093e+18   -2.4626830450477629e+18   -1.0516334360184078e+18   -9.2264218361059418e+17   -1.8011652379078738e+18   -1.5098690164346337e+18   2.0471260675715172e+18   9.4954283549217229e+17   1.0445272275037821e+17   5.9008552703722394e+17   -9.4039844124774170e+17   1.0185551949101160e+18   -2.2634673778546588e+18   -3.7142161536753874e+18   -8.9557155296271386e+17   -6.1629216135823898e+17   -2.4205486963332475e+18   3.6050255416263558e+17   -1.9654620256079534e+18   1.0408946294292646e+18   5.1677110665642086e+18   8.5307488713758144e+17   1.2517744520687529e+18   -4.6842109181618207e+18   -3.5837097759073088e+17   2.5186160711742418e+18   1.3209747315096271e+18   1.6782599261421453e+17   2.7177829563981594e+18   -6.3537935202070456e+18   4.2033846580916301e+18   -2.6561225884736404e+18   -7.9608428872916864e+17   -2.1451594562918359e+18   -2.6369486985829878e+18   -1.7306958042382643e+18   -3.7615541515850797e+17   -3.6899502243619827e+17   -1.1082123633360145e+18   1.7014042325239634e+18   -9.5375462371390566e+17   1.0363670531123954e+18   1.6647623658220334e+18   2.1829299524242010e+18   2.5078444871216835e+18   -1.5792315327066586e+18   -1.0504133085347914e+17   -1.4985068359417430e+17   6.3544548905810906e+17   -3.4040452958855795e+17   -1.3270189737848753e+18   2.3719018394725484e+18   -2.9189591194891565e+17   -3.1255000089705283e+18   4.4983876235274291e+17   -3.2895772082733420e+18   -2.5257016966274345e+18   -4.3765455184259369e+18   -1.7732135670982538e+17   1.1111710979198291e+18   2.7024120288693453e+18   4.4175065250779807e+18   3.7075550901285395e+17   1.1607677548079677e+18   3.2871437625029050e+17   -3.3263139353062799e+18   1.9876822057737395e+18   -4.4263092732134016e+17   5.6321725739489080e+16   9.5216548478853939e+17   2.2964833574363625e+18   1.5292875088692073e+18   4.3656163672561446e+17   2.5781265235313157e+18   -3.7441927503239777e+18   -2.9013571580886323e+18   -3.0215823200660065e+18   -8.6272494599929805e+17   -2.7725622459344173e+17   1.1473375446618806e+16   -5.8222616296230016e+17   4.0424986057603283e+17   -1.1128183503663373e+18   -1.8507190730363610e+18   2.0648450652979077e+18   1.4960881527595092e+18   -1.1116912953709886e+17   4.8779078764839475e+18   1.6497566907185859e+18   2.3205098626207155e+18   -1.9138788803419507e+17   1.3670328435113738e+18   1.1038436016068564e+18   9.9021878147681240e+15   -1.5049026213164406e+18   -5.9314401724210701e+17   8.8405140472478131e+17   4.3238245208337952e+17   2.3308556684032669e+17   -2.1418931954011999e+18   3.6880882557563269e+18   7.2614228937472678e+17   6.1072489548543910e+17   1.6741326853217746e+18   -3.1604134375020037e+18   -5.4030841482326876e+18   -8.9339100324357798e+17   -8.2121700942089165e+17   1.1928476476689347e+18   2.3823170728843284e+18   4.4148537262170563e+18   2.2048336693563062e+18   2.0754801789193221e+18   6.0999167603298816e+17   -2.7999111732943375e+18   8.6132322389809370e+17   -1.4392674744512746e+17   1.2811971719521180e+18   -7.4105638823468384e+16   -6.1351795587291763e+17   -5.8251349002061210e+17   2.3214506782574674e+18   -1.5071549723538342e+18   -5.4609749321617382e+17   -2.0599447412808781e+18   -3.0113129268382136e+18   -2.0957622585421583e+18   9.4273479659128358e+17   1.5979225859828608e+18   2.6171382036073774e+18   2.9178744505519872e+17   -1.0152139621135341e+18   -2.1848966639202506e+18   1.5565687933507443e+18   -8.3806342198617357e+17   7.6395378342237414e+17   -3.7334713636004726e+18   -2.5556985653088635e+18   -9.5425113632591757e+17   1.3770080335066652e+18   -2.1526262368101965e+18   -5.4285648344775537e+18   1.2484952196721574e+18   5.9283739928461427e+17   1.6680552579881838e+18   -9.2573571990441677e+17   -6.8192889857600307e+17   9.6932498055642010e+17   -1.7487956743685289e+18   1.2316424674573576e+18   -2.3834627681486300e+18   -1.4244192670844316e+18   -2.6123651796642519e+18   1.6322618158629123e+18   2.7507242215091866e+18   2.0785009056760097e+18   -4.0891605255314483e+17   -1.9664362696920527e+18   -3.1575890649072799e+18   -1.6973505510774661e+18   -1.9445552002740372e+18   -5.1792553556955603e+17   -2.6001024108358072e+18   -5.6756325426573384e+18   2.2700013477443152e+16   -9.9704163534165107e+17   -6.0366785912683489e+18   -4.3587976660131441e+18   -2.1947675416067546e+18   -3.3052834437191849e+18   -4.5278330241248886e+18   -1.1258077645101784e+18   4.6726169806541498e+17   -4.2451631262463150e+18   2.9449356931136195e+18   4.7914337473975693e+17   1.1451892058769302e+18   -3.3808672596931036e+18   3.4371690676559191e+18   -9.5382431911997210e+17   5.9888663531660365e+17   6.6983112807057114e+17   -2.5133603304844457e+18   3.3658444393902342e+17   -2.4316157331775400e+16   -1.0882696808662597e+18   -1.3907382324347679e+18   -2.6095249593913247e+18   2.6934652901219722e+18   4.2357631626443078e+17   -1.0954944674152726e+17   3.4862819074719119e+18   1.3140690609780027e+18   -9.8982039966600781e+17   1.3456787065217275e+18   1.6940308971614318e+18   5.4971758357390701e+17   -9.9275097111512730e+17   -2.3695948967595722e+17   -1.1086122749355811e+18   2.1100594702016762e+17   2.6331626123746598e+17   -2.0707441155525174e+18   -6.8998555807155059e+17   -2.1122129079746847e+18   -3.4285300920559816e+18   -2.4037765816663777e+18   -5.3124768673700192e+17   -1.8031752073143954e+18   -3.4707140424025713e+18   8.4315620423199206e+17   8.5122386278678592e+17   4.2733096907138886e+17   3.6577204867485914e+17   -4.2822798742540032e+17   -1.5898990790315843e+18   8.8307806217943949e+17   -3.2994923445583427e+18   -1.9793291990868966e+18   -1.8373924375269514e+18   -7.5835574907761344e+17   -3.3366907472874772e+18   -1.6123341941932191e+18   -5.8168884448061210e+17   -2.1348683910837747e+18   -1.8724284714644252e+18   -1.3252614843849759e+18   -3.2027808908696284e+18   -4.4978556271383864e+18   -3.6005983629224571e+18   -2.2780585962170365e+17   -1.3309430463715210e+18   -6.7054321404906400e+16   6.7699200785769549e+17   -7.0139035929124229e+18   -2.3331621384369244e+18   -3.2071082814131436e+18   -4.7800956303633285e+18   4.8539949049594701e+17   7.1022907983449754e+17   -1.3024593172306412e+18   -1.0044867277695124e+18   3.7373158698194912e+17   2.3144841679254170e+18   -2.6702572922080870e+18   8.3408417333769613e+17   9.5741304202580378e+17   1.9967770738436554e+18   6.4431667711266074e+17   -3.3660144736407526e+18   -1.0730304500946898e+18   -1.5803249153874237e+18   -2.1162202291343644e+18   -2.4528976019018363e+18   -2.1659123646823831e+18   2.3941321641005036e+18   -1.9052370869690944e+18   -6.2864541049825416e+16   2.4276039715881928e+18   3.6595105919370092e+18   2.6873959768078725e+18   -1.0397535003848838e+17   1.2634756047933199e+18   -2.6979468847080304e+16   -2.7854471040138516e+18   -2.5894616545336438e+18   -2.9179395307714560e+18   -7.2905409193956362e+18   -3.1435563195035561e+18   1.3358667582735486e+17   7.5290972745953014e+18   -1.5617971925706342e+18   -7.8522353998465344e+17   -4.2078668052863558e+17   -1.6142272517833777e+18   -4.1172653508357806e+18   -9.4899130120774595e+18   -1.9953338334138476e+18   -2.4838863760525542e+17   1.0174677664855740e+18   -1.9771036380535598e+18   -6.2316072401894154e+18   -4.1779870520076227e+18   1.7298328020023416e+18   1.1219935182970080e+18   -1.2180758188585229e+18   -1.2368741885033219e+18   -2.8370683585777628e+18   -3.3504238729096653e+18   1.6773551160356698e+18   2.2784701071618537e+18   3.1464918030603822e+18   4.2474949880739410e+18   -1.1716454550824207e+18   -2.6775623518031063e+18   -1.1505983205560989e+18   1.9739159390113132e+18   4.9516558518841472e+17   -1.9666661162532119e+18   -3.9310966269354895e+18   -2.1712413234012849e+18   3.6717959124214733e+18   4.4582912703374730e+18   3.1644659600747018e+18   1.8706715557723720e+18   -2.3371420065738301e+17   -2.4830324650423942e+17   -1.8342149685840420e+18   -2.0141963009590124e+18   -4.3783876455371735e+18   -3.4716845449927526e+18   -4.3038827470304727e+18   -3.9558656508743537e+18   5.0551116436764252e+18   2.2841645007258345e+18   -1.4862438376148849e+18   -1.1441337535880220e+18   1.9487310755621304e+18   4.7181708158562273e+18   -1.9194959840745091e+18   1.5166768871009733e+18   -2.5543308251623053e+17   3.3428648701965844e+18   -2.2806496204608279e+18   -7.8122400673689715e+17   6.5778671309852314e+17   -3.2796484977590036e+18   -1.5902712321933732e+18   2.0294028669090851e+17   1.0754596424091196e+18   1.8472889795966231e+18   9.1352492162581760e+16   -1.0393623630661853e+18   3.1410211329249213e+18   1.9333904015625539e+17   1.9755722918697111e+18   1.3553028983467487e+18   1.3684597156516872e+18   9.2005909351254118e+17   -2.8548556098359183e+18   -8.9665207627440960e+17   -2.6857995850410148e+18   -5.8337855644612188e+18   -4.9642521460373760e+17   2.8472218496864755e+17   -1.8650642764381230e+18   -1.0175636932593518e+18   2.3050894106731699e+18   4.1331270708683796e+18   -3.4339897861237642e+18   -2.3525309871636516e+18   8.8154480073204352e+17   -3.4261246978172262e+18   1.5110851426822723e+18   -1.5872704935560584e+18   2.8693942829573120e+18   6.9814596580994324e+18   2.4865807660531441e+18   -1.9409352482837341e+17   -1.8171985514956029e+18   -2.5289085985173074e+18   5.6351769838384134e+17   4.0113654994472545e+18   2.7997856597893478e+18   -2.3760521472785562e+18   1.1587069381101326e+16   1.2472392431297764e+18   -5.0995339631533222e+17   5.3278906199981660e+18   -2.5873934981623043e+17   2.6098619156057841e+18   2.3078630468393492e+18   -1.4036886839001815e+18   1.0383658873489801e+18   6.9106779256742131e+17   -5.3369792574701690e+17   2.8493345861898253e+17   -2.3557784511765417e+18   -2.9714037067281705e+18   -3.3080225754498438e+17   -7.9521326216117414e+17   -3.3994792822892088e+16   1.6376060894048730e+18   2.3131658498577669e+18   5.5982935439360850e+18   1.5997643891213481e+18   3.0914304571875666e+18   -1.0889238582415194e+18   8.2126730408916122e+17   -3.2213637194294458e+17   -3.0588000498045906e+18   -3.3911458437098004e+18   -2.6737252157403156e+18   -3.6170028196501207e+18   -1.0675078043949510e+17   -1.5744035541556416e+18   8.8594124462773440e+17   1.3170226198336466e+18   1.7735964018152387e+17   1.2841484348409769e+18   3.3513981326146770e+18   -3.2158443574932239e+18   -1.2604158331476367e+18   1.5110088255518177e+18   1.8443682507552878e+18   -5.1920183666179610e+17   1.5123124971849213e+17   4.7256737198779981e+17   2.1654968631098327e+18   -3.3490494923232474e+17   -5.5385322829528576e+17   -1.7416694281168272e+17   -7.1219924452990477e+17   -8.1097993005377933e+17   2.0853843019993976e+18   -3.4462248486138429e+18   -3.1575232323146982e+18   1.7575647447785280e+18   -1.3538668128388762e+18   -5.9612221996868979e+17   1.7138065289960241e+18   8.1268551144638387e+17   2.6705920775865308e+16   -1.7166686354693524e+18   -2.6047567310094275e+18   1.1265953045675935e+18   -1.7786646640397862e+18   3.5936947308042189e+17   -1.2232470140198275e+18   8.0886271183414861e+17   -2.0453319378613740e+18   3.9746688044895508e+18   3.6439567586566354e+18   -1.9561444941273065e+18   -2.3912291826348426e+18   -4.9650365805776947e+17   1.6523598300368287e+18   -6.2901431014147891e+17   1.3584192692101816e+18   -4.1942411002316186e+18   -1.2401090276451845e+18   -1.3466746312959811e+18   -7.5865667123372467e+17   7.9357590762395942e+17   8.5865096526030733e+17   -1.8864840934695857e+18   -2.3719698084227256e+18   -8.2630796306214720e+16   -3.9315381075913738e+18   2.3531346027806495e+18   2.1846184394747592e+18   -3.1166751017387075e+18   -2.4027339657441751e+18   -2.4272253376268872e+18   -1.0666150001235987e+18   9.7266875322522464e+16   -5.6524255611366170e+17   -4.0860800609552410e+18   -4.6710410322863268e+18   -1.0257329779205549e+18   -1.3911613562877036e+18   8.4035315628186752e+17   -7.4680730251688282e+17   4.9570286048523219e+17   4.1866776210724137e+18   -7.4057593263792108e+18   -3.8134938175266432e+18   -2.4979352180657234e+18   -1.2494737771799862e+18   -2.6897623466631721e+18   -8.6309000133241242e+17   -1.1034365387598284e+18   -2.4582777581557765e+18   4.8947406896521779e+17   -1.5889167463717286e+18   1.9506107059731689e+18   3.7546685914140250e+17   -2.5260338480600684e+18   -4.4126000036271785e+18   -3.7687560466278185e+18   -3.1017990573207199e+18   -2.5961874706100746e+18   2.7891639420446761e+18   1.2960592306911857e+18   7.8615767093473050e+17   -5.6666201165434419e+18   -3.4002035465250145e+18   1.1699183547566925e+18   6.2581531915298586e+17   -1.2637192491213560e+18   -9.2149723868316208e+16   8.1062582621215411e+17   2.8751937487067474e+18   -2.3129507613499075e+18   -1.8941500466973432e+18   -3.1123112597391299e+18   -4.1399214934335677e+18   -1.9603629767622569e+18   -1.7660790573134134e+18   -2.6035016892536397e+18   -1.7379836713850606e+18   -3.1166842072094336e+18   1.3881569037563285e+17   -9.2359050071045274e+17   -1.4161513936447839e+18   8.3116844820991181e+17   2.3271334634385341e+18   5.4489883518312576e+17   5.56