<?xml version="1.0"?>
<VTKFile type="UnstructuredGrid"  version="0.1"  >
<UnstructuredGrid>
<Piece  NumberOfPoints="387" NumberOfCells="708">
<Points>
<DataArray  type="Float64"  NumberOfComponents="3"  format="ascii">0 3 0  0 -3 0  6 -3 0  6 3 0  3 -3 0  6 0 0  3 3 0  0 0 0  3 0 0  0 -1.5 0  1.5 -3 0  1.5 3 0  0 1.5 0  6 -1.5 0  4.5 -3 0  6 1.5 0  4.5 3 0  4.25 -1.25 0  1.75 1.25 0  2.25 -1.5 0  4.5 0.75 0  1.541666666666667 -0.2083333333333333 0  3.219827586206896 1.521551724137931 0  1.125 -1.875 0  4.875 1.875 0  0.8702651515151515 0.631628787878788 0  2.25 2.214285714285714 0  3.316176470588236 -1.904411764705882 0  5.214285714285714 -0.75 0  5.03125 -2.03125 0  0.96875 2.03125 0  4.041666666666667 -0.2083333333333333 0  0.8205128205128206 -0.9134615384615387 0  3.942582294752138 2.189194098250713 0  3.061487638533674 -0.968243819266837 0  2.192708333333333 0.4427083333333334 0  4.157850026972511 -2.182329047049442 0  2.331456616463011 -0.5285296485744057 0  3.654761904761905 0.5654761904761902 0  5.25 1.125 0  2.563673341677096 -2.280663329161452 0  5.126674107142857 0.1283482142857142 0  0.75 -3 0  0 -2.25 0  6 2.25 0  5.25 3 0  0.7680051888903191 -0.1384245958639337 0  1.617229471026718 -1.006949429867069 0  4.218940341429579 1.468686552856807 0  3.75 -3 0  2.25 -3 0  0.75 3 0  5.25 -3 0  6 -0.75 0  0 -0.75 0  0 0.75 0  2.25 3 0  6 -2.25 0  0 2.25 0  3.75 3 0  6 0.75 0  1.787573018358365 -2.279142327213878 0  3.195025188237337 2.273430909158844 0  2.528159645294386 1.151699106559287 0  1.041598427383826 1.322848427383826 0  1.520951704545454 0.4634232954545453 0  1.580357142857143 2.325892857142857 0  4.919642857142857 -1.361607142857143 0  4.54981623521892 -0.6483700862895494 0  2.99317863826574 0.6697091957925523 0  3.450169349029507 -0.4574865881858001 0  3.605016126014028 -1.323102984840902 0  2.745144658907412 1.882241931337371 0  0.4898065586600511 1.092777516238393 0  0.5 -1.875 0  1.217028489597945 -2.469323836800685 0  1.659912685567181 -1.604738056701542 0  5.4375 1.6875 0  5.34375 2.34375 0  4.52741779500503 2.384139265001677 0  3.375 -2.514804579549941 0  0.5446428571428571 -2.455357142857143 0  2.766554087216865 -1.745795909102064 0  4.525516559010988 0.1490283123570637 0  3.87554132162248 -0.8280516069565407 0  4.53622906132958 -1.76963146596888 0  0.4243951612903226 1.875 0  0.554851858345021 2.446861709948876 0  5.575604838709677 -1.875 0  5.445148141654979 -2.446861709948876 0  4.875 -2.575604838709677 0  1.440573466105381 1.721823466105381 0  2.193519495405082 1.631799415080963 0  5.472630128027442 -1.330813078900983 0  4.750126894286386 1.343813447143193 0  5.607142857142857 -0.375 0  2.625 2.607142857142857 0  0.3921763197810531 0.375 0  5.60901753622775 0.3750000000000001 0  1.125 2.613454943235572 0  3.701856738980915 1.163867513386733 0  3.736112850688509 1.696746876851408 0  3.519183195491339 0.06065128742606851 0  3.973620778217027 -1.693401606145563 0  0.8125 -1.444978632478633 0  1.256657745408029 -0.6381828923025001 0  0 -1.125 0  5.019997778514942 0.6475044429701156 0  4.125 3 0  1.285569332703024 0.8955310332120207 0  0 -0.375 0  0.4638922275641027 -0.5625 0  2.056635259780241 -0.07226025978024064 0  2.130475508371123 -1.000827820434028 0  2.677484372338113 -1.267299126394495 0  2.848680878891876 -0.4956836878192376 0  4.937901885089369 -0.3340245904575954 0  4.393563081308854 1.919544166973803 0  4.053859126323572 0.2813938488760716 0  1.181051704329518 0.1167440895674965 0  1.971354166666667 2.607142857142857 0  4.875 3 0  2.519350561152006 0.08093582719875507 0  3.139443301924015 -1.442524927271905 0  6 2.625 0  1.849169256239503 1.945480934753207 0  1.867196483071171 0.7892354369530077 0  1.192506522009051 -1.184888428863342 0  3.375 3 0  3.603234392481833 2.536866305538572 0  3.846752908916648 -2.537707634073423 0  2.014339897513945 -1.886932065281681 0  4.038392037966526 0.8363324773944992 0  4.421242701722609 -2.552534687860327 0  3.715389848650903 -2.108856956172843 0  2.985668138820625 1.127780908772207 0  0.4500794934449803 -1.173696061598557 0  3.366760888116476 0.8891914618875614 0  1.869163043700093 -0.6107175804171328 0  2.175114838273305 -2.53928723780967 0  3.014417665538299 -2.241523065744933 0  2.625 -3 0  2.819968145332426 -2.617202329573456 0  5.625 1.3125 0  5.563263538826679 0.814027077653358 0  5.625 3 0  2.550041671270923 0.7074928970804664 0  4.014583091741168 2.59891853892166 0  0.6440729668673318 1.499523832583132 0  5.219449799568244 -1.660557808485412 0  3.474012636702472 -0.9300738420779746 0  0.8125 -2.142857142857143 0  1.875 -3 0  4.945010515846405 2.554471797033147 0  2.611388969012422 -0.8478354915063726 0  3.223746055611014 0.3371683159691745 0  4.843939757110898 -0.9483610977948225 0  4.66556954816842 -2.220888354477256 0  4.125 -3 0  4.448108395110625 -0.2524000502731018 0  5.63671875 2.05078125 0  2.822484133964224 1.491327727709286 0  3.378213092764193 1.903125093887009 0  5.607142857142858 -0.9231200445788541 0  2.12639693023183 1.100450516019641 0  5.625 -3 0  0.375 3 0  0 2.625 0  6 -2.625 0  0.3931307155906299 -0.01856779822591927 0  0.7651723094668359 0.253768144801553 0  0.8549199714190221 -0.5218333744252657 0  1.421989550604507 -2.133299471886336 0  1.582611957351803 -2.615166692128227 0  4.420331038793115 1.133144382396504 0  0.375 -3 0  0 -2.625 0  5.078156723571596 1.54697017071479 0  1.877250715260938 -1.288801575378032 0  2.409169073010687 -1.916147168931784 0  1.146151077069952 -0.268000681695328 0  1.726784828652036 0.1335728643263411 0  2.745628549924675 0.3838821021397905 0  3.011490900297165 2.613625569196862 0  5.62463365164608 -4.137655439684362e-05 0  1.875 3 0  1.125 3 0  6 0.375 0  2.625 3 0  6 -1.125 0  6 -0.375 0  4.875 -3 0  6 -1.875 0  3.375 -3 0  1.125 -3 0  0 -1.875 0  0 0.375 0  0 1.125 0  0 1.875 0  6 1.125 0  6 1.875 0  4.813017731148975 0.9677363687196439 0  2.807371623148303 2.264962208227767 0  0.3692953377255688 0.7436406761680247 0  5.615625 2.615625 0  0.9395725521479794 0.9812935874921043 0  1.390920759130215 1.238984550166515 0  0.9588795022085095 1.672288500195331 0  0.87712392565124 -2.641031728267331 0  0.3665732993114588 -1.532068934251388 0  1.841944504733106 1.591700334213738 0  4.832970185136452 0.3385359233091246 0  4.169083540479082 -0.5746148619765254 0  5.281697083409333 -0.2046640461936881 0  4.072845380968044 1.784516523483641 0  1.293029195762321 -1.543079049035419 0  4.878733886054284 -1.720697370582964 0  3.609167475697567 -1.687579152754035 0  4.836981942878573 2.222259978217028 0  4.204938267037067 -0.9128589669335569 0  5.183079748175263 -1.111742407358677 0  1.22880920402559 2.273525645756405 0  1.469404041858679 2.654509729682302 0  4.566761045622856 -1.414165869120005 0  4.531680518427715 1.606803989975667 0  1.918929241273175 2.27471131819245 0  3.526908551984126 2.207147627530056 0  1.85683899811842 0.4533569963423589 0  1.173935704088662 0.4636872214645547 0  2.116602160898525 -2.207718541460878 0  4.51821874648995 -1.042568353750147 0  2.721551512787618 -0.1859357475290837 0  5.294921875 2.001953125 0  5.288671874999999 2.670703125 0  2.199940744527116 0.7756512213396931 0  4.090519467638897 1.163401080812838 0  2.298177083333333 2.670581371753247 0  2.484362362207526 -2.687319997637033 0  3.300530569898859 1.207053005217563 0  3.936078051808127 -1.362164062673065 0  5.341218841330105 0.5689885832563615 0  4.226314635599414 0.5638853401248238 0  2.524510956818563 1.635483567726497 0  0.3219546452225031 1.389066019009203 0  3.139061555368706 -0.3133905221155423 0  3.145569907612562 -0.6461828528638952 0  3.701427442033566 -0.2272880199383185 0  1.686782510365738 -1.934662341426927 0  2.427696494631844 1.944064773844184 0  3.901817839425732 1.422433381251312 0  2.356489883772755 -0.2025512972825912 0  4.820757576351118 -0.01647699434507374 0  3.064415631228375 1.809719380809516 0  4.643002705009462 2.69782572459795 0  4.31624250429496 2.728112685900672 0  1.520100694408069 -1.314302747998057 0  3.754559308601717 -0.5375020107416889 0  0.25 -2.0625 0  0.8125 -1.826636904761905 0  4.861738621091127 -0.6367294570749906 0  1.545149590740081 2.015832101819233 0  3.857113324620078 0.04127675193819436 0  0.2479605082936806 -0.9375 0  4.21293081604216 2.352874368135467 0  3.123697687162562 -2.708090473740421 0  3.415275466010259 -2.202892416689829 0  3.601103065320932 -2.727566580522146 0  1.558629964945672 -0.5289921609136927 0  3.324859026263307 -1.198136798699183 0  2.424350759683917 -1.092246517929194 0  2.746461744851735 0.9398108087856579 0  0.8882026075771248 2.364936378889839 0  0.8066140242673685 2.679750706449505 0  4.504454978490482 0.4491616076730165 0  4.26881784709759 -0.009649566552704852 0  1.3125 -2.75919801263958 0  1.120577805361368 -2.179971784090952 0  3.734048623985226 0.8602850349907256 0  3.527828882622877 1.432983527791925 0  1.959527908877504 -1.578124930685265 0  0.7602573574724077 1.220872343399509 0  0.6691217533356228 0.8531987603309893 0  1.877213035764122 -2.564340152892596 0  3.32172153715047 2.685939810104955 0  4.285565286275464 -1.569057178671076 0  4.227521511146333 -1.876903861267543 0  5.34375 1.40625 0  5.71875 1.59375 0  1.56245959534423 0.766197796710638 0  0.2458241530773257 2.4375 0  0.2794123857609179 2.138568368155198 0  5.754175846922674 -2.4375 0  5.720587614239082 -2.138568368155198 0  0.6472458227887359 2.124973059628837 0  5.124241021325378 -2.352544055105642 0  5.189172233440652 -2.675873509996353 0  5.364643151640443 -2.12768524739804 0  2.298896485720138 1.348573610321417 0  0.6008689899200503 -2.745193425346304 0  0.307092513690391 -2.651812055231556 0  0.2683745826107009 -2.363146293324415 0  0.5223214285714285 -2.165178571428571 0  0.3925308914031174 2.699891746740618 0  5.607469108596883 -2.699891746740618 0  2.138365140930822 1.917102089073091 0  1.25507379660067 1.953406658386351 0  4.135759889512124 -2.476847355718572 0  0.5330865684534913 -0.8980875812659357 0  2.548249345531056 -1.538893887888457 0  2.67686064875775
[...]
<CellData  Scalars="f_26-2"> 
<DataArray  type="Float64"  Name="f_26-2"  format="ascii">6.7709023287680969e+74   4.3354907738921212e+75   3.9558297587022797e+75   9.5362652101064582e+75   2.0816140071749715e+75   3.2862500624888974e+75   -1.6255152994145128e+75   1.1170585457923747e+75   -4.1925023405986897e+73   1.0030688669990169e+74   1.7420278022115869e+75   -3.6929993262604414e+75   -1.4464510456187386e+75   -3.3504982758810731e+75   -2.4728998358556418e+73   -8.4512215933700717e+74   -3.0238995460830184e+75   4.3617264243154550e+74   -6.9196679352925007e+74   -2.1085979661098628e+74   2.6669750723357411e+74   -1.1756280297677884e+75   -1.0199676461011811e+75   3.3170188411769072e+74   8.4529787952568518e+74   -3.3660551298150470e+74   5.4141880391325788e+75   7.3258996263164213e+74   9.4678277053026542e+74   -1.0640686554078974e+74   3.1446515796943011e+74   -1.8264091309756217e+75   -4.4744219285030176e+72   -3.3590559732396844e+75   2.4871349910017776e+75   2.3451946530933251e+75   -7.2690737584706151e+73   2.0756182515839520e+74   -2.6816972600899050e+75   6.2964422933350805e+74   1.2265685583439424e+75   -6.1600658573044511e+73   -1.7780573600874457e+75   -1.9201934198784583e+75   -5.8089473293030674e+75   -2.6324087784157633e+75   -2.3249323414862201e+75   -7.3145567878714745e+76   4.0096848096901343e+75   -3.3048173481434314e+75   3.4975682682160199e+75   -5.3900699428646021e+75   3.1382075874448136e+75   6.2129007837440354e+74   2.5810178078386301e+75   2.2791086105045299e+75   -4.1290200139674514e+75   -1.8728948018956176e+75   -1.0692105885150696e+74   -1.2848770915624352e+74   1.8680137607285330e+74   2.9490870333706989e+74   -1.8096085725993335e+74   -6.3339270228432821e+74   1.2499112201978064e+76   -2.3203170649063634e+76   1.6667612940493898e+74   -9.3750691857828356e+75   -5.2308421515646942e+74   1.3665274815741186e+75   -6.5613195004886393e+74   -2.5810150960273772e+75   8.6124429951565309e+74   1.0134521870434471e+75   -4.6437911626111235e+74   -1.3310781192453078e+75   3.3532491850427659e+75   2.0016310298280566e+74   -1.1158856399614766e+75   -2.2458037545505102e+73   -2.2619002551199098e+74   -1.2733928807396320e+74   -2.4817921399192568e+74   5.2822793300177692e+74   4.5060433375140980e+74   8.6634980169959969e+74   -3.3313714808088184e+74   7.0794296308701422e+73   -4.6656741045150217e+74   -8.6615516314072780e+74   2.1850173478673286e+74   -1.6706125039802141e+75   -6.3352230031165425e+74   1.4372623464097258e+74   4.1911340817492690e+74   3.5663484438517347e+74   -7.1372088387451356e+74   -1.0180143664879314e+75   -5.5926272008502568e+76   2.4788115453083845e+75   2.2732398739509150e+75   7.1936644754945643e+75   2.5219023160465463e+75   3.3750848733844356e+75   -1.0056506364990121e+75   -5.0900011609513509e+75   8.8258894216889017e+76   -1.3740164618043056e+75   -2.1471973787180619e+75   9.6674443133433751e+74   1.5512431300017876e+75   -1.5604006034677681e+75   -1.3122522727282598e+75   -4.2302849564779459e+74   -3.1906307956830135e+74   9.8135997447061850e+73   6.2103807786513825e+73   -8.1854938536393595e+74   -1.9676169130608253e+74   1.6803530875035263e+74   7.0332930446458011e+74   -6.8285371141968900e+73   -1.0362126944464675e+75   1.7103956182508858e+74   4.8314983134941227e+73   -7.0708518655823528e+73   -1.4089400214046683e+74   1.4568206606314058e+76   -1.9630835703586048e+73   -2.4536811099903681e+75   -4.6941280478462564e+75   1.1476485218952321e+75   9.1313818516285086e+75   -6.3291572567819660e+74   -9.0545125143405673e+74   -1.1041397077457505e+75   2.0303348951078778e+76   6.4393817470468705e+75   -1.0895487484075797e+75   -1.8003683685838524e+75   -1.5261999193879953e+75   -1.7402845740285650e+75   -1.2297313837775869e+75   -4.7040746519344898e+74   1.5124343798736985e+74   -3.2776759394119611e+73   4.4312661244474070e+75   2.1447051098018600e+75   5.6923081637867263e+73   2.1697810392663204e+75   -2.2638576268667294e+75   -5.9111625332068490e+75   -1.3369793786286044e+75   -2.1618278836179060e+75   4.3144740097883254e+73   -1.6631553735335676e+74   6.2372202767848728e+74   7.2373694717269906e+73   -2.7810007930734862e+76   -4.2363799914335758e+75   -4.1020494306049010e+76   1.4295227351447909e+75   7.6320632139449600e+74   1.0574016629701657e+75   1.1664135551016779e+75   9.8089932117882626e+74   8.7003057913485826e+74   1.4815260744799807e+75   3.3156966836100567e+74   1.7499310557154238e+74   -8.6046775884071706e+74   -1.0956657080585981e+75   -5.1620659908192476e+75   -5.4714244498350712e+75   -1.0534624323304884e+75   -5.7438002509892138e+74   1.2626937441960848e+75   2.0773348160868564e+75   1.4376101277767270e+75   7.1403083071396713e+75   4.1186070962759759e+76   6.9690653521043826e+75   1.0969588413275354e+74   -1.9268606080305834e+74   2.3962866510680944e+74   6.8704325798004650e+74   1.4901051998378855e+75   -4.0077544401461736e+75   -3.0378301116115662e+74   -7.8241132866276642e+73   -4.6317805509586118e+74   -4.3442085585474727e+73   2.5179307385823267e+75   2.9588756100462509e+75   1.7789936482957953e+75   2.2814350361092410e+75   2.9444373089547314e+76   5.1009283303076652e+75   2.0614958132334037e+74   1.8375657959957983e+75   1.9420459078666678e+75   -1.7707009560423560e+75   -2.0940213768727453e+75   -2.2980828227217254e+75   -1.2985214433940175e+75   1.1518075091143530e+74   2.6762595263056921e+74   -9.1865643967015009e+74   -6.3030573781253690e+74   1.1047410147859786e+75   2.3306389459726779e+75   -8.3508241063206267e+74   -8.0761252641713584e+74   1.0367973320001988e+75   1.4146477016189901e+75   -5.2243225698869806e+74   9.0279877502184418e+74   6.7401776422326569e+74   -2.5350958892571004e+75   -1.6313725994714553e+75   -1.3003631140351086e+76   -2.0635604758332458e+76   4.6921273154698980e+76   3.7762597275068790e+76   -4.7416681341748308e+74   6.0535222273155393e+76   6.1502315933773831e+76   -6.3308029610921932e+73   -2.7773344356399187e+74   5.4996351450740992e+76   2.6787186074184773e+76   -7.9128172693215482e+74   2.0859383595155887e+74   1.2401893429002550e+73   1.1087113864212461e+74   4.9493204424689574e+74   5.4250573879295493e+74   8.3534431686452924e+75   -1.2938151157076453e+75   -3.1845132857895407e+76   -5.8497881284668155e+76   -6.8492017843276278e+75   -7.5658962310082372e+75   1.7887897851208250e+75   1.3719470681765027e+75   -6.3670625732049415e+74   6.0615891904769735e+73   -6.2549524089818828e+73   -3.9380062324092720e+74   -8.5378903236322785e+73   2.9567631246114632e+73   -9.3432588080883495e+75   -9.6291654554182969e+74   -9.5291731404587200e+74   -3.7274633757474575e+74   5.0339960398190795e+76   -2.2702828641797332e+74   -6.5256120864331548e+74   -7.7093970423450979e+74   -1.2203523809983186e+75   5.5120469451192527e+74   -7.1786783250560009e+74   -3.4832873596662521e+74   1.1980062042127638e+74   -1.5524806367115289e+75   -3.7488828602071405e+75   -6.3981917961659859e+74   2.7402130782062434e+75   -5.6155659812763197e+74   -9.1063455877061450e+74   -1.1510991941082628e+75   2.6379732008719279e+74   -1.4655707094233402e+76   -4.6498343395212434e+74   8.1394871825669277e+74   6.8115082753386897e+74   -4.8990671723746756e+75   1.4353802099773554e+75   4.0826641212127001e+75   5.6348443487204966e+75   -1.4936515679107940e+76   -1.1009262141957108e+75   -2.3499187605895820e+75   -2.2782845439176674e+75   -1.3262108967200010e+77   -5.7872972645044331e+76   -1.2900234364287159e+77   -7.6320156074267376e+75   -1.8910371846770197e+75   -6.8783161917972968e+75   2.8673872831144599e+75   3.9241430826364837e+75   1.0639704935086367e+75   8.3616447040929597e+74   1.6405731438669139e+75   8.0151001230581234e+74   8.0969975492529271e+74   1.0568929669295841e+75   -1.4008620733516309e+74   -3.2798043565708490e+74   2.2522117475385331e+76   1.0181722214588119e+76   2.2799516788694831e+74   2.8056273581120214e+76   1.7988009865051368e+75   1.1467429459535619e+76   2.0609696596771589e+75   2.8039736732492833e+75   1.4321230498969164e+76   3.8400897028102846e+76   1.1404899172046379e+75   2.2103942606718093e+76   2.1926297619626376e+75   5.7602605505298279e+75   1.1401791133183606e+76   9.8519067130348847e+75   -2.6152619374920673e+75   -1.7727289771114044e+76   9.8981256889209343e+74   1.6974026262217411e+75   -2.6328978794185669e+74   -1.1783427912792843e+76   -5.7289286104131945e+75   -1.0798009467230952e+77   -2.2334416843269884e+76   -2.5967335540167170e+76   -2.4912706199644242e+76   -3.2161553612001115e+75   -6.3821259522252883e+74   -6.5347241559321865e+75   -1.2188077416602582e+75   -2.1166380783201972e+75   2.0973578933700567e+76   4.9639862972918690e+76   4.8403385282320377e+76   2.4247293450303957e+76   -3.1967177748400975e+75   -2.6885683468387320e+75   -5.4133111137310351e+74   -4.8930798625839242e+74   -1.7971236195033660e+76   -8.4088481415691727e+75   7.2173965230842802e+76   3.5889635074632059e+76   4.5222239753022197e+74   1.7507630882269277e+74   5.4459746339225460e+73   8.3408096489595350e+73   1.3446349460535217e+74   1.1316914579794911e+74   -6.1024931686753795e+76   -2.8449650698154858e+76   -3.6803778871987180e+76   -1.7877883781630824e+76   -1.8738172372324335e+74   -2.3385840606013068e+74   -1.5411999472213233e+75   -1.0912239683854450e+75   -6.0492084468433624e+74   -7.1437126716640382e+74   9.7024252556046814e+74   -5.9638255143298761e+74   -1.7350930784164758e+75   -2.9665001391892615e+75   4.5975824662719609e+75   6.1221552933330268e+75   -1.2955433025187087e+74   3.3869203242622947e+73   5.7540310519989326e+74   6.4097531054648947e+74   -5.9408566090437561e+75   -6.3790281227440948e+75   -3.1607925255637087e+74   1.2431226607416784e+74   -7.2521510911913105e+74   -4.4076968594044707e+74   1.6331986828114910e+74   -2.4634447904324746e+74   1.4943468056458193e+76   5.6970017575797411e+75   -1.4745546441019675e+74   -1.8980792740083498e+74   -3.5307908320969415e+75   -3.7430646492355816e+75   -4.2097530692417405e+73   4.2741527259359852e+74   -1.4825078417331695e+75   -6.6683625197895336e+74   6.6360422260066904e+74   4.7635860612594831e+74   2.1412499375074262e+74   4.6254460221951076e+74   2.1487388171007055e+75   -1.5381088822934716e+76   -1.7720592764993085e+74   -4.3491634369378731e+74   5.7855344113932741e+74   3.2977835473747640e+74   -5.8543324573383769e+75   -5.1152045748630586e+75   3.3374069449567787e+76   6.7364174954134817e+76   2.5323666085787965e+74   4.5701377331587925e+73   -2.6864398049048478e+75   -2.1345395788034543e+75   7.3271005464580958e+75   1.2914806565626921e+76   -3.4805851169973078e+76   -2.6016256021147608e+76   -1.3087141432029995e+75   -1.5501678276574520e+75   2.5819194784755219e+74   4.2188487206454623e+74   -1.2743347296150700e+75   -5.3121443622564991e+74   -1.7133341678342007e+75   -1.8895291644310562e+75   -1.7904589572645665e+74   -3.8583786636784625e+74   -1.1789591048171444e+76   -2.6169901027615135e+75   -2.1167556984264063e+74   -2.7761810182723787e+72   3.3532851291680007e+74   2.0725784264369241e+74   -4.5446224166791331e+74   -4.3786178876456248e+74   2.9324513900849502e+75   2.9843020617352488e+75   -4.2784992279391392e+74   -1.0317803711068086e+74   -2.4178419135359441e+75   -1.9733929587047845e+75   6.0577799211800196e+74   9.0239586529053636e+74   -1.3182011029558856e+75   -1.3833470361056436e+75   -8.2834325684208459e+74   -9.4846331051476441e+74   2.4217220843488545e+75   3.5541746008475241e+75   4.7448690056586540e+76   2.0274773460326581e+76   3.3129391843681922e+75   3.0953701176253830e+75   8.0312569935551532e+73   -1.2464104714592671e+73   -4.8030952119271897e+75   -1.8112422734801859e+75   8.1790652926213644e+75   8.0242388490599447e+75   -7.2836328657101079e+74   -8.7840977873666629e+74   1.7990500958360827e+74   1.7270967370459864e+74   -1.0571626102805276e+75   -7.6921714644756538e+74   -3.4820728942844558e+75   -1.5522365061089601e+76   -3.7528162594218075e+75   -4.2693405044222259e+75   -1.9807977110833923e+76   -3.2317570794528771e+75   5.2048701650151297e+74   -3.0502247248063535e+74   -9.4266858149519898e+75   -1.7751674232912572e+76   1.6356898410010031e+75   1.8529286092786147e+75   9.3081434378965400e+74   6.9166100684869781e+74   2.4151832755310786e+75   1.6930354019710458e+75   -6.5619379350622029e+74   -4.0552041976633474e+74   4.0813159364497470e+74   1.0251770260519746e+74   2.8194724508882506e+74   -2.8922222613832631e+74   -1.6439122798578877e+75   -1.9569225807083235e+75   -1.0081899335535760e+75   -1.0543855366036509e+75   -2.4311843123592592e+76   -4.4419390115391181e+75   5.9493630942409970e+75   6.9329537194819246e+75   -1.4157007782689678e+75   -1.3028898952653993e+75   -1.2786326400655638e+75   -1.4730645661608883e+75   2.7001753288110012e+75   3.0665500424286293e+75   2.7649759530467687e+74   2.1556109344149631e+74   1.6300411083537217e+74   -1.0715621163541347e+74   -7.1988635123245289e+74   4.5844775221526529e+74   3.9074982524614410e+76   1.7114309519050495e+76   6.5095714377401898e+73   -5.3706668220912195e+73   -5.1187993605837965e+73   3.8329497418933345e+73   -4.3227440442138778e+75   -3.6246735730141680e+75   2.3820655513290066e+76   4.3962458354244234e+75   4.0797585306164997e+74   5.1886198636918065e+74   -4.0061830328432926e+74   -6.2210506128278494e+74   -4.6386748274527494e+75   -2.9267179230967347e+75   1.9158754158463985e+74   7.4737835207970649e+74   3.8710373696924452e+75   2.6318247832960677e+75   8.5148346072300663e+73   8.2407164999214853e+73   7.4244243296446595e+74   3.8613386685451552e+74   -2.2033462656461268e+74   3.4256212731091224e+74   6.7695196727681554e+74   1.1356820822547367e+75   -6.2462563342730145e+74   -5.0323649891554877e+74   -4.1578459057773612e+76   -1.8419141615948713e+75   -1.0228700631372252e+77   -5.6642225384564779e+76   -4.8077469576863227e+75   -4.3218523704526925e+76   1.0215517786436685e+76   7.9607047813515572e+75   9.5505972904292847e+74   6.1256466041413683e+74   -1.5303800041550143e+75   -2.3250896306024802e+75   -1.9038660054910280e+74   -2.3678299370635644e+74   8.9991224329022657e+73   1.0851866574037850e+74   -2.7885124839696785e+74   6.0090364869315788e+73   2.1947960264749611e+75   1.1586991594554520e+75   1.7881551714923399e+75   1.5083031390681123e+75   1.1886667625403968e+75   1.2388256634425984e+75   8.7237243229612474e+74   1.0411068044946774e+75   -4.1817991060385100e+74   9.4439043669063331e+73   -1.4671846230848008e+75   -1.2762829657631219e+75   -1.0377462561128704e+75   -1.1538633643417187e+75   9.1901235585385622e+74   1.0143984460163538e+75   -1.2493059040681864e+74   -1.3360228184958573e+73   3.1804160082022094e+75   7.5059773922813254e+75   -3.7829097933364102e+75   -1.0463102737540502e+76   -1.1367850617925722e+76   -3.6916318558604893e+75   8.2493804154412450e+75   1.7986106148853586e+75   1.2890656323370616e+75   3.2157204798436089e+76   4.4113911027781118e+75   5.2969751320046195e+75   1.1436132084795317e+74   7.0242520859375023e+73   -1.0386645281148437e+74   -2.4668519331608648e+73   -2.0528380408365115e+74   -2.6730781048421545e+73   -2.6442308535686217e+75   -2.4465328704858607e+75   4.2124984897637154e+74   6.6594537149351430e+73   1.7765823944016591e+74   3.0519207730461004e+74   -8.3495076701118083e+74   -6.8448690131357208e+74   2.2212365181775426e+75   1.0340248103510689e+75   9.5367106901194437e+72   1.0267729354018201e+74   2.6175695816147995e+74   3.0090987281985005e+74   -2.1826586928679577e+75   -2.4506141119662744e+75   2.4869019850339996e+75   2.5546008284715588e+75   -9.8305992462572341e+73   3.3215072613651491e+73   -1.5331656457846592e+76   -6.1084005241844823e+75   2.9006947774537800e+75   2.8419012594242861e+75   3.9460937046416284e+74   6.9111396722934687e+74   1.8858633034640928e+76   9.7511135318593015e+75   -7.8875846045605477e+75   -2.3656523616180880e+76   -1.2113067748178727e+75   -1.0904513259293059e+75   1.1753201585750296e+75   1.4153813551304598e+75   -4.8958930084557162e+75   -5.6406651650041655e+75   -4.1733163403795382e+75   -4.2984671619112306e+75   -2.7408003880223332e+73   -1.1583853984244662e+74   4.8602677962682528e+75   1.0399635192915512e+76   -3.0210853239411350e+74   1.3341698180402048e+74   -1.1620714160288499e+76   -3.7516772735540738e+75   -5.4657169112243772e+73   5.2623464311387065e+74   5.1876864739027680e+75   2.7410634754501822e+75   1.4177615575966688e+75   1.4175823671754660e+75   -8.6172758800810179e+75   -1.6844120279730543e+76   -5.0935113510649268e+75   -5.3997718426141687e+75   -6.8515631770404439e+75   -2.1117774082790646e+75   7.2356373345079522e+75   2.2604340904373929e+76   -2.3028096268971025e+74   -3.7650172183122793e+74   1.6872940375453540e+75   7.0046195302587307e+75   3.5363523350895567e+75   3.1743940857994883e+75   5.5990994789835781e+75   5.3374201473807550e+75   6.2476074974057081e+75   7.0636148381650585e+75   5.4130390224345815e+75   1.6369240187201344e+76   -2.7619090080296439e+75   -7.0093108169409625e+75   -1.2147650046253472e+76   -2.7865552296102225e+76   6.8217993852352605e+75   4.1556667289689336e+75   1.3465566611116095e+76   5.3727740039064049e+75   2.1841093062494565e+77   2.1681015169260550e+77   -1.7961279347448124e+75   -1.8314863791908277e+75   -1.6966232343276281e+75   -1.4116240275601539e+75   1.0208625148546309e+75   9.6690445132965917e+74   3.1688642938863817e+76   8.6679880373635895e+75   -4.2232893147203171e+75   -3.4198758306248679e+75   -3.6438534243572261e+73   -9.6191654011407140e+73   -7.6226379537760459e+74   5.4466690204503432e+73   -1.0184019014299738e+74   -3.1669461218638163e+74   -1.3217189476155312e+76   -5.3677639934976508e+75   1.0259648923695216e+76   7.7383610273207473e+75   -7.5249210132533838e+75   -7.1874779317597565e+75   6.4697447186037620e+74   4.6624393440760848e+74   1.0060058885773767e+75   7.9880665109315140e+74   4.1361078054293850e+73   1.0034231520022986e+74   5.8813040465041060e+74   4.8309666823998196e+74   2.6484273886544303e+75   2.8306702794308626e+75   2.1144430190193465e+75   2.2619148584056285e+75   2.0801825451533317e+75   1.9854368392539248e+75   1.6273890685311164e+75   1.8814737951506530e+75   -3.1089515186679056e+74   -2.9571269793719904e+74   -3.7648087941082476e+74   3.5908290907281956e+73   </DataArray> 
</CellData> 
</Piece>
</UnstructuredGrid>
</VTKFile>