<?xml version="1.0"?>
<VTKFile type="UnstructuredGrid"  version="0.1"  >
<UnstructuredGrid>
<Piece  NumberOfPoints="387" NumberOfCells="708">
<Points>
<DataArray  type="Float64"  NumberOfComponents="3"  format="ascii">0 3 0  0 -3 0  6 -3 0  6 3 0  3 -3 0  6 0 0  3 3 0  0 0 0  3 0 0  0 -1.5 0  1.5 -3 0  1.5 3 0  0 1.5 0  6 -1.5 0  4.5 -3 0  6 1.5 0  4.5 3 0  4.25 -1.25 0  1.75 1.25 0  2.25 -1.5 0  4.5 0.75 0  1.541666666666667 -0.2083333333333333 0  3.219827586206896 1.521551724137931 0  1.125 -1.875 0  4.875 1.875 0  0.8702651515151515 0.631628787878788 0  2.25 2.214285714285714 0  3.316176470588236 -1.904411764705882 0  5.214285714285714 -0.75 0  5.03125 -2.03125 0  0.96875 2.03125 0  4.041666666666667 -0.2083333333333333 0  0.8205128205128206 -0.9134615384615387 0  3.942582294752138 2.189194098250713 0  3.061487638533674 -0.968243819266837 0  2.192708333333333 0.4427083333333334 0  4.157850026972511 -2.182329047049442 0  2.331456616463011 -0.5285296485744057 0  3.654761904761905 0.5654761904761902 0  5.25 1.125 0  2.563673341677096 -2.280663329161452 0  5.126674107142857 0.1283482142857142 0  0.75 -3 0  0 -2.25 0  6 2.25 0  5.25 3 0  0.7680051888903191 -0.1384245958639337 0  1.617229471026718 -1.006949429867069 0  4.218940341429579 1.468686552856807 0  3.75 -3 0  2.25 -3 0  0.75 3 0  5.25 -3 0  6 -0.75 0  0 -0.75 0  0 0.75 0  2.25 3 0  6 -2.25 0  0 2.25 0  3.75 3 0  6 0.75 0  1.787573018358365 -2.279142327213878 0  3.195025188237337 2.273430909158844 0  2.528159645294386 1.151699106559287 0  1.041598427383826 1.322848427383826 0  1.520951704545454 0.4634232954545453 0  1.580357142857143 2.325892857142857 0  4.919642857142857 -1.361607142857143 0  4.54981623521892 -0.6483700862895494 0  2.99317863826574 0.6697091957925523 0  3.450169349029507 -0.4574865881858001 0  3.605016126014028 -1.323102984840902 0  2.745144658907412 1.882241931337371 0  0.4898065586600511 1.092777516238393 0  0.5 -1.875 0  1.217028489597945 -2.469323836800685 0  1.659912685567181 -1.604738056701542 0  5.4375 1.6875 0  5.34375 2.34375 0  4.52741779500503 2.384139265001677 0  3.375 -2.514804579549941 0  0.5446428571428571 -2.455357142857143 0  2.766554087216865 -1.745795909102064 0  4.525516559010988 0.1490283123570637 0  3.87554132162248 -0.8280516069565407 0  4.53622906132958 -1.76963146596888 0  0.4243951612903226 1.875 0  0.554851858345021 2.446861709948876 0  5.575604838709677 -1.875 0  5.445148141654979 -2.446861709948876 0  4.875 -2.575604838709677 0  1.440573466105381 1.721823466105381 0  2.193519495405082 1.631799415080963 0  5.472630128027442 -1.330813078900983 0  4.750126894286386 1.343813447143193 0  5.607142857142857 -0.375 0  2.625 2.607142857142857 0  0.3921763197810531 0.375 0  5.60901753622775 0.3750000000000001 0  1.125 2.613454943235572 0  3.701856738980915 1.163867513386733 0  3.736112850688509 1.696746876851408 0  3.519183195491339 0.06065128742606851 0  3.973620778217027 -1.693401606145563 0  0.8125 -1.444978632478633 0  1.256657745408029 -0.6381828923025001 0  0 -1.125 0  5.019997778514942 0.6475044429701156 0  4.125 3 0  1.285569332703024 0.8955310332120207 0  0 -0.375 0  0.4638922275641027 -0.5625 0  2.056635259780241 -0.07226025978024064 0  2.130475508371123 -1.000827820434028 0  2.677484372338113 -1.267299126394495 0  2.848680878891876 -0.4956836878192376 0  4.937901885089369 -0.3340245904575954 0  4.393563081308854 1.919544166973803 0  4.053859126323572 0.2813938488760716 0  1.181051704329518 0.1167440895674965 0  1.971354166666667 2.607142857142857 0  4.875 3 0  2.519350561152006 0.08093582719875507 0  3.139443301924015 -1.442524927271905 0  6 2.625 0  1.849169256239503 1.945480934753207 0  1.867196483071171 0.7892354369530077 0  1.192506522009051 -1.184888428863342 0  3.375 3 0  3.603234392481833 2.536866305538572 0  3.846752908916648 -2.537707634073423 0  2.014339897513945 -1.886932065281681 0  4.038392037966526 0.8363324773944992 0  4.421242701722609 -2.552534687860327 0  3.715389848650903 -2.108856956172843 0  2.985668138820625 1.127780908772207 0  0.4500794934449803 -1.173696061598557 0  3.366760888116476 0.8891914618875614 0  1.869163043700093 -0.6107175804171328 0  2.175114838273305 -2.53928723780967 0  3.014417665538299 -2.241523065744933 0  2.625 -3 0  2.819968145332426 -2.617202329573456 0  5.625 1.3125 0  5.563263538826679 0.814027077653358 0  5.625 3 0  2.550041671270923 0.7074928970804664 0  4.014583091741168 2.59891853892166 0  0.6440729668673318 1.499523832583132 0  5.219449799568244 -1.660557808485412 0  3.474012636702472 -0.9300738420779746 0  0.8125 -2.142857142857143 0  1.875 -3 0  4.945010515846405 2.554471797033147 0  2.611388969012422 -0.8478354915063726 0  3.223746055611014 0.3371683159691745 0  4.843939757110898 -0.9483610977948225 0  4.66556954816842 -2.220888354477256 0  4.125 -3 0  4.448108395110625 -0.2524000502731018 0  5.63671875 2.05078125 0  2.822484133964224 1.491327727709286 0  3.378213092764193 1.903125093887009 0  5.607142857142858 -0.9231200445788541 0  2.12639693023183 1.100450516019641 0  5.625 -3 0  0.375 3 0  0 2.625 0  6 -2.625 0  0.3931307155906299 -0.01856779822591927 0  0.7651723094668359 0.253768144801553 0  0.8549199714190221 -0.5218333744252657 0  1.421989550604507 -2.133299471886336 0  1.582611957351803 -2.615166692128227 0  4.420331038793115 1.133144382396504 0  0.375 -3 0  0 -2.625 0  5.078156723571596 1.54697017071479 0  1.877250715260938 -1.288801575378032 0  2.409169073010687 -1.916147168931784 0  1.146151077069952 -0.268000681695328 0  1.726784828652036 0.1335728643263411 0  2.745628549924675 0.3838821021397905 0  3.011490900297165 2.613625569196862 0  5.62463365164608 -4.137655439684362e-05 0  1.875 3 0  1.125 3 0  6 0.375 0  2.625 3 0  6 -1.125 0  6 -0.375 0  4.875 -3 0  6 -1.875 0  3.375 -3 0  1.125 -3 0  0 -1.875 0  0 0.375 0  0 1.125 0  0 1.875 0  6 1.125 0  6 1.875 0  4.813017731148975 0.9677363687196439 0  2.807371623148303 2.264962208227767 0  0.3692953377255688 0.7436406761680247 0  5.615625 2.615625 0  0.9395725521479794 0.9812935874921043 0  1.390920759130215 1.238984550166515 0  0.9588795022085095 1.672288500195331 0  0.87712392565124 -2.641031728267331 0  0.3665732993114588 -1.532068934251388 0  1.841944504733106 1.591700334213738 0  4.832970185136452 0.3385359233091246 0  4.169083540479082 -0.5746148619765254 0  5.281697083409333 -0.2046640461936881 0  4.072845380968044 1.784516523483641 0  1.293029195762321 -1.543079049035419 0  4.878733886054284 -1.720697370582964 0  3.609167475697567 -1.687579152754035 0  4.836981942878573 2.222259978217028 0  4.204938267037067 -0.9128589669335569 0  5.183079748175263 -1.111742407358677 0  1.22880920402559 2.273525645756405 0  1.469404041858679 2.654509729682302 0  4.566761045622856 -1.414165869120005 0  4.531680518427715 1.606803989975667 0  1.918929241273175 2.27471131819245 0  3.526908551984126 2.207147627530056 0  1.85683899811842 0.4533569963423589 0  1.173935704088662 0.4636872214645547 0  2.116602160898525 -2.207718541460878 0  4.51821874648995 -1.042568353750147 0  2.721551512787618 -0.1859357475290837 0  5.294921875 2.001953125 0  5.288671874999999 2.670703125 0  2.199940744527116 0.7756512213396931 0  4.090519467638897 1.163401080812838 0  2.298177083333333 2.670581371753247 0  2.484362362207526 -2.687319997637033 0  3.300530569898859 1.207053005217563 0  3.936078051808127 -1.362164062673065 0  5.341218841330105 0.5689885832563615 0  4.226314635599414 0.5638853401248238 0  2.524510956818563 1.635483567726497 0  0.3219546452225031 1.389066019009203 0  3.139061555368706 -0.3133905221155423 0  3.145569907612562 -0.6461828528638952 0  3.701427442033566 -0.2272880199383185 0  1.686782510365738 -1.934662341426927 0  2.427696494631844 1.944064773844184 0  3.901817839425732 1.422433381251312 0  2.356489883772755 -0.2025512972825912 0  4.820757576351118 -0.01647699434507374 0  3.064415631228375 1.809719380809516 0  4.643002705009462 2.69782572459795 0  4.31624250429496 2.728112685900672 0  1.520100694408069 -1.314302747998057 0  3.754559308601717 -0.5375020107416889 0  0.25 -2.0625 0  0.8125 -1.826636904761905 0  4.861738621091127 -0.6367294570749906 0  1.545149590740081 2.015832101819233 0  3.857113324620078 0.04127675193819436 0  0.2479605082936806 -0.9375 0  4.21293081604216 2.352874368135467 0  3.123697687162562 -2.708090473740421 0  3.415275466010259 -2.202892416689829 0  3.601103065320932 -2.727566580522146 0  1.558629964945672 -0.5289921609136927 0  3.324859026263307 -1.198136798699183 0  2.424350759683917 -1.092246517929194 0  2.746461744851735 0.9398108087856579 0  0.8882026075771248 2.364936378889839 0  0.8066140242673685 2.679750706449505 0  4.504454978490482 0.4491616076730165 0  4.26881784709759 -0.009649566552704852 0  1.3125 -2.75919801263958 0  1.120577805361368 -2.179971784090952 0  3.734048623985226 0.8602850349907256 0  3.527828882622877 1.432983527791925 0  1.959527908877504 -1.578124930685265 0  0.7602573574724077 1.220872343399509 0  0.6691217533356228 0.8531987603309893 0  1.877213035764122 -2.564340152892596 0  3.32172153715047 2.685939810104955 0  4.285565286275464 -1.569057178671076 0  4.227521511146333 -1.876903861267543 0  5.34375 1.40625 0  5.71875 1.59375 0  1.56245959534423 0.766197796710638 0  0.2458241530773257 2.4375 0  0.2794123857609179 2.138568368155198 0  5.754175846922674 -2.4375 0  5.720587614239082 -2.138568368155198 0  0.6472458227887359 2.124973059628837 0  5.124241021325378 -2.352544055105642 0  5.189172233440652 -2.675873509996353 0  5.364643151640443 -2.12768524739804 0  2.298896485720138 1.348573610321417 0  0.6008689899200503 -2.745193425346304 0  0.307092513690391 -2.651812055231556 0  0.2683745826107009 -2.363146293324415 0  0.5223214285714285 -2.165178571428571 0  0.3925308914031174 2.699891746740618 0  5.607469108596883 -2.699891746740618 0  2.138365140930822 1.917102089073091 0  1.25507379660067 1.953406658386351 0  4.135759889512124 -2.476847355718572 0  0.5330865684534913 -0.8980875812659357 0  2.548249345531056 -1.538893887888457 0  2.67686064875775
[...]
<CellData  Scalars="f_26-2"> 
<DataArray  type="Float64"  Name="f_26-2"  format="ascii">7.4613399036090285e+46   4.7775737793074925e+47   4.3591945293533949e+47   1.0508633945939246e+48   2.2938719159745852e+47   3.6213303119072204e+47   -1.7912879215753063e+47   1.2309695593716446e+47   -4.6119187278640764e+45   1.1055266814589370e+46   1.9196561984542001e+47   -4.0696597329998829e+47   -1.5939979852084719e+47   -3.6922179230575314e+47   -2.7254167737709073e+45   -9.3129953452447139e+46   -3.3323088866766678e+47   4.8064357303825583e+46   -7.6252699090119495e+46   -2.3235732144331955e+46   2.9390658904812099e+46   -1.2955165602219416e+47   -1.1239806659502760e+47   3.6554688650750822e+46   9.3149399990780563e+46   -3.7092872517360724e+46   5.9662224738689611e+47   8.0734487538760985e+46   1.0433333696853476e+47   -1.1723688912098579e+46   3.4657141987905219e+46   -2.0126814300879698e+47   -4.9218998828684342e+44   -3.7016650097786644e+47   2.7407454226996231e+47   2.5843245641414333e+47   -8.0100355620315708e+45   2.2874255947340328e+46   -2.9552238752692468e+47   6.9384378527128416e+46   1.3516297605581913e+47   -6.7883929094593628e+45   -1.9593908393830984e+47   -2.1160249654458080e+47   -6.4012865067057883e+47   -2.9008801454600022e+47   -2.5620484816685025e+47   -8.0604344957480218e+48   4.4185285237644218e+47   -3.6418925070653510e+47   3.8542463920576408e+47   -5.9398200299406453e+47   3.4582446255175546e+47   6.8464795186054424e+46   2.8441929648184293e+47   2.5115062058607878e+47   -4.5501500974893505e+47   -2.0638999139707449e+47   -1.1779794922522505e+46   -1.4159877044046861e+46   2.0595905925429157e+46   3.2506997012430456e+46   -1.9932034635099121e+46   -6.9797116352056916e+46   1.3773714619412278e+48   -2.5569367366394461e+48   1.8368098734742987e+46   -1.0331119035123000e+48   -5.7640785306145653e+46   1.5049870209336686e+47   -7.2301993376558903e+46   -2.8451307936349843e+47   9.4908312757496713e+46   1.1167963999130578e+47   -5.1175380539778810e+46   -1.4668295479241618e+47   3.6951741989555661e+47   2.2059033593253370e+46   -1.2297025148904986e+47   -2.4731882927770051e+45   -2.4924472209216297e+46   -1.4030938746823019e+46   -2.7348424739236983e+46   5.8210033386653521e+46   4.9657065976358043e+46   9.5472764256440103e+46   -3.6708239977269272e+46   7.8042074131289343e+45   -5.1413231512243945e+46   -9.5446914599111124e+46   2.4077846878392463e+46   -1.8410002606136670e+47   -6.9812908211128028e+46   1.5838471178470512e+46   4.6186966683676544e+46   3.9302657156357613e+46   -7.8650984047229938e+46   -1.1218366563900978e+47   -6.1629410981552469e+48   2.7315705210846073e+47   2.5050159148973632e+47   7.9271611171475490e+47   2.7790342094633842e+47   3.7192329745965113e+47   -1.1082278163208585e+47   -5.6091504470507576e+47   9.7260739039439020e+48   -1.5141328507550596e+47   -2.3661635222267652e+47   1.0653266528490948e+47   1.7094268904845014e+47   -1.7195397805697244e+47   -1.4460860596991551e+47   -4.6614982521774840e+46   -3.5158996319811086e+46   1.0818736300188003e+46   6.8464137310192001e+45   -9.0196702998666291e+46   -2.1675583451062390e+46   1.8527731390013215e+46   7.7507152095987523e+46   -7.5222318852791151e+45   -1.1419481001913885e+47   1.8852379907951985e+46   5.3262400785167717e+45   -7.7874492606959028e+45   -1.5521518390613198e+46   1.6053849570930093e+48   -2.1619894915628244e+45   -2.7039302972185424e+47   -5.1728880721687232e+47   1.2646870805776455e+47   1.0062548438995855e+48   -6.9745762613329055e+46   -9.9778445613033889e+46   -1.2167445106847169e+47   2.2373888482831321e+48   7.0955170902036279e+47   -1.2006575638946505e+47   -1.9839766051448052e+47   -1.6818616190855407e+47   -1.9177746673481121e+47   -1.3551482798380741e+47   -5.1838474111117063e+46   1.6670270087951467e+46   -3.6094325522562102e+45   4.8831094353934565e+47   2.3633982318534166e+47   6.2728060780931536e+45   2.3910328231610142e+47   -2.4947226253213021e+47   -6.5139627024207223e+47   -1.4733367557641320e+47   -2.3823088197078788e+47   4.7532208584461009e+45   -1.8329964136798877e+46   6.8733817456552839e+46   7.9777740890583933e+45   -3.0645989274643691e+48   -4.6683949329710035e+47   -4.5203636246299307e+48   1.5752951230468805e+47   8.4104331698805246e+46   1.1652248997405601e+47   1.2853571929521034e+47   1.0809214289291744e+47   9.5874116116352330e+46   1.6325943862097231e+47   3.6538417443449286e+46   1.9283761955874202e+46   -9.4821077207657376e+46   -1.2073984206897540e+47   -5.6885538734553316e+47   -6.0294867212802433e+47   -1.1609013904271930e+47   -6.3295502990135137e+46   1.3914580949935547e+47   2.2891635977532224e+47   1.5842073811113640e+47   7.8683174236575657e+47   4.5386753978882829e+48   7.6798552998022661e+47   1.2088647887365074e+46   -2.1233348377135629e+46   2.6409231368317116e+46   7.5709709709740675e+46   1.6420696075225444e+47   -4.4165176387590820e+47   -3.3472057061399782e+46   -8.6167973845897155e+45   -5.1040631762089670e+46   -4.7854897342241415e+45   2.7746844382526028e+47   3.2605917231775155e+47   1.9604123022397901e+47   2.5140956921225260e+47   3.2447439118308955e+48   5.6211451199832681e+47   2.2722180752789456e+46   2.0249452919729325e+47   2.1400771661889465e+47   -1.9512955252844269e+47   -2.3075884586415033e+47   -2.5324930791220758e+47   -1.4309584650696280e+47   1.2695216567880647e+46   2.9494710921820937e+46   -1.0123393535187535e+47   -6.9457807660005071e+46   1.2173836487634621e+47   2.5682957345774586e+47   -9.2024695543834887e+46   -8.8997849474316105e+46   1.1425170882765109e+47   1.5588955355666925e+47   -5.7571153901483273e+46   9.9487046946570146e+46   7.4274669298097957e+46   -2.7936169761936787e+47   -1.7977366976783401e+47   -1.4329667677695831e+48   -2.2739951426820010e+48   5.1706315603765329e+48   4.1613702892903289e+48   -5.2253377373309596e+46   6.6709248479255789e+48   6.7774907045519305e+48   -6.9750814953189088e+45   -3.0604707881732040e+46   6.0605640295080418e+48   2.9519295145124939e+48   -8.7197087081885370e+46   2.2989428709631695e+46   1.3714727900413763e+45   1.2224877110940249e+46   5.4540505544888982e+46   5.9783613680583321e+46   9.2052086644866903e+47   -1.4257718285506608e+47   -3.5092223294642212e+48   -6.4462557410973401e+48   -7.5477705630774871e+47   -8.3375591807253297e+47   1.9711879327929759e+47   1.5118458185880534e+47   -7.0164775897377047e+46   6.6792217240601398e+45   -6.8886272775750968e+45   -4.3394797089198722e+46   -9.4026231462130745e+45   3.2627970558991934e+45   -1.0296380079569713e+48   -1.0611305527283672e+47   -1.0500984801246323e+47   -4.1074007771199897e+46   5.5473889549072506e+48   -2.5016977358013888e+46   -7.1909655637379506e+46   -8.4956649672342875e+46   -1.3448111374906351e+47   6.0742016079134196e+46   -7.9106633984330827e+46   -3.8382884299215306e+46   1.3204983982143907e+46   -1.7128391525568702e+47   -4.1319635005905057e+47   -7.0710604894100049e+46   3.0188912545299153e+47   -6.2031500496498589e+46   -1.0040364313804294e+47   -1.2699746823119949e+47   2.9016600711053851e+46   -1.6150255602835344e+48   -5.1240231222674289e+46   8.9695277344545526e+46   7.5061420250809133e+46   -5.3986625367169608e+47   1.5817431718236505e+47   4.4989612384320659e+47   6.2094108591779232e+47   -1.6459547751978718e+48   -1.2132015208075010e+47   -2.5895770691348715e+47   -2.5106418722065553e+47   -1.4614417703162046e+49   -6.3774063200436522e+48   -1.4215630381473130e+49   -8.4102362113767383e+47   -2.0839069855101729e+47   -7.5798459642893246e+47   3.1597612938065495e+47   4.3242786900578383e+47   1.1724586420319341e+47   9.2143670342253639e+46   1.8078569686638792e+47   8.8324577417208132e+46   8.9227146131344090e+46   1.1646679945184045e+47   -1.5437917647282452e+46   -3.6143437513708135e+46   2.4819023798280807e+48   1.1220074380153960e+48   2.5124937532515794e+46   3.0917451672320650e+48   1.9821950482657342e+47   1.2636521402255498e+48   2.2708687866339783e+47   3.0896733119914826e+47   1.5781711235069209e+48   4.2317020507997484e+48   1.2567930099209189e+47   2.4358014052497074e+48   2.4162332140986064e+47   6.3476508002962363e+47   1.2564542930450740e+48   1.0856592566711246e+48   -2.8822424431335213e+47   -1.9535894557615699e+48   1.0907723785383858e+47   1.8702323605167299e+47   -2.9013182044156796e+46   -1.2985093172304172e+48   -6.3130804996070830e+47   -1.1899033024349801e+49   -2.4611921440709028e+48   -2.8615357463809485e+48   -2.7453229796333839e+48   -3.5441303808072575e+47   -7.0329144090301087e+46   -7.2011655995534287e+47   -1.3430946714671004e+47   -2.3327645259508636e+47   2.3112497515345520e+48   5.4702174812405005e+48   5.3339723434936217e+48   2.6720097937482650e+48   -3.5227552345128975e+47   -2.9627751711407612e+47   -5.9652717666017024e+46   -5.3920524233070122e+46   -1.9803908885553276e+48   -9.2663683508748767e+47   7.9534790277134311e+48   3.9549948429182144e+48   4.9835323988684719e+46   1.9294987160015521e+46   6.0056517123364366e+45   9.1961859298348831e+45   1.4824164999203747e+46   1.2479484140923958e+46   -6.7247307459555760e+48   -3.1350505506773198e+48   -4.0556830913231775e+48   -1.9700961259448328e+48   -2.0645991457069784e+46   -2.5768961844486583e+46   -1.6983802737398481e+47   -1.2025060362057283e+47   -6.6659961194823812e+46   -7.8721396267827918e+46   1.0691882613269175e+47   -6.5720333894182207e+46   -1.9120582445844039e+47   -3.2690580137254538e+47   5.0663779556705865e+47   6.7464057657376570e+47   -1.4268714145091855e+46   3.7393888703934250e+45   6.3409984281891466e+46   7.0635378809419574e+46   -6.5467913267387806e+47   -7.0296464607663231e+47   -3.4829660345679042e+46   1.3700353983220543e+46   -7.9915358383135575e+46   -4.8569408499340151e+46   1.8003311947920671e+46   -2.7142600494349848e+46   1.6466595992648964e+48   6.2776171111854610e+47   -1.6246722017976929e+46   -2.0914444712434559e+46   -3.8909041839597822e+47   -4.1248266725936392e+47   -4.6349007365967093e+45   4.7103092865996624e+46   -1.6337123681267969e+47   -7.3485392286938297e+46   7.3128011274778433e+46   5.2493683547142117e+46   2.3597555369344442e+46   5.0972519277288662e+46   2.3678293087252478e+47   -1.6949472129941906e+48   -1.9524775470904096e+46   -4.7924358875223346e+46   6.3754489498154447e+46   3.6340753786378419e+46   -6.4514229916055561e+47   -5.6369093249390413e+47   3.6777942674233086e+48   7.4234815445793075e+48   2.7907215980458192e+46   5.0371974986977069e+45   -2.9604325016860086e+47   -2.3522379153840714e+47   8.0742451026759269e+47   1.4231645911616189e+48   -3.8354942589580424e+48   -2.8669173284271380e+48   -1.4421806500962366e+47   -1.7082643803407324e+47   2.8453231101562276e+46   4.6491251887184928e+46   -1.4042961789814592e+47   -5.8538899896240344e+46   -1.8880667361291168e+47   -2.0822366903142583e+47   -1.9727228155687537e+46   -4.2515310822754968e+46   -1.2991908713521590e+48   -2.8838659699003664e+47   -2.3326507053589690e+46   -3.0624538186603184e+44   3.6952391332868424e+46   2.2839721445283680e+46   -5.0079959555889922e+46   -4.8250733274626997e+46   3.2314552558901939e+47   3.2886021291981162e+47   -4.7147909704171570e+46   -1.1369424025429233e+46   -2.6644397177492569e+47   -2.1746578755374930e+47   6.6754936678350882e+46   9.9441210020324380e+46   -1.4526329849003649e+47   -1.5244230040012569e+47   -9.1281668043386931e+46   -1.0451899136345027e+47   2.6686960708349458e+47   3.9166606089211864e+47   5.2288132288192610e+48   2.2342627852380577e+48   3.6507518362925420e+47   3.4109948056727693e+47   8.8511072090246174e+45   -1.3724678126960797e+45   -5.2928909280892208e+47   -1.9959811517350007e+47   9.0130535927557427e+47   8.8424406938822300e+47   -8.0262909494000478e+46   -9.6797629571854507e+46   1.9832606943032156e+46   1.9039133380564857e+46   -1.1649772393439623e+47   -8.4766146469180973e+46   -3.8371680114210177e+47   -1.7105289794411773e+48   -4.1355825252072435e+47   -4.7048004981123938e+47   -2.1828068758839039e+48   -3.5613463345878564e+47   5.7356889843748637e+46   -3.3612209005334395e+46   -1.0388088651793985e+48   -1.9562221336243783e+48   1.8024802879501572e+47   2.0418701641513386e+47   1.0257339730054216e+47   7.6220860561654460e+46   2.6614575804098715e+47   1.8656757769001475e+47   -7.2311177827167825e+46   -4.4687184802615311e+46   4.4984097262185403e+46   1.1309523808757426e+46   3.1069832339101186e+46   -3.1870115950735122e+46   -1.8115660417435970e+47   -2.1565043507229100e+47   -1.1110008560070358e+47   -1.1619115123781244e+47   -2.6790801038042786e+48   -4.8948696047815126e+47   6.5559814960248667e+47   7.6398743701124555e+47   -1.5600773946629547e+47   -1.4357720281855698e+47   -1.4090288662906738e+47   -1.6232959306984760e+47   2.9755079942950139e+47   3.3792402260622120e+47   3.0470691508380618e+46   2.3756550773752544e+46   1.7964217589945961e+46   -1.1807179207823716e+46   -7.9330595744573086e+46   5.0517852209483788e+46   4.3060190641707578e+48   1.8859734603710501e+48   7.1775172574020295e+45   -5.9153706144885292e+45   -5.6350814187856375e+45   4.2292525560773635e+45   -4.7636158826417179e+47   -3.9943448773581677e+47   2.6249979940742485e+48   4.8445692603148082e+47   4.4959059209165967e+46   5.7178116046896923e+46   -4.4137413658639005e+46   -6.8550841050176579e+46   -5.1120866394647780e+47   -3.2252735500166733e+47   2.1125111938982735e+46   8.2363449526273808e+46   4.2654459673502979e+47   2.9001274749225057e+47   9.3909874572532618e+45   9.0898080457655968e+45   8.1821977275212168e+46   4.2559330302148962e+46   -2.4280391621626191e+46   3.7751321908333343e+46   7.4608625313652735e+46   1.2515528261725853e+47   -6.8831180900837955e+46   -5.5454021279569217e+46   -4.5818013244898738e+48   -2.0297261703763815e+47   -1.1271719180050463e+49   -6.2417981364268341e+48   -5.2980403097301583e+47   -4.7625561357740857e+48   1.1257141811534186e+48   8.7724189982050928e+47   1.0519403767980102e+47   6.7340943594146845e+46   -1.6869609341357191e+47   -2.5638251574725757e+47   -2.0975405366316040e+46   -2.6088886412992648e+46   9.9244476187236936e+45   1.1965256264916367e+46   -3.0724406637844581e+46   6.6243418369876566e+45   2.4186033114668266e+47   1.2768528895249139e+47   1.9704994236437702e+47   1.6621129909776734e+47   1.3098853362523159e+47   1.3651465699075169e+47   9.6134394467058646e+46   1.1472822313940484e+47   -4.6078071166735649e+46   1.0412414322113457e+46   -1.6168263498195436e+47   -1.4064445798371700e+47   -1.1435860858232494e+47   -1.2715459697995732e+47   1.0127218799406142e+47   1.1178334640412297e+47   -1.3763843175987775e+46   -1.4703674234169111e+45   3.5046934704798652e+47   8.2713377138329715e+47   -4.1687577895534073e+47   -1.1530231479941465e+48   -1.2527946270470762e+48   -4.0683942920554635e+47   9.0906293838819751e+47   1.9820370000462686e+47   1.4205038824066130e+47   3.5436788988103553e+48   4.8612087872478523e+47   5.8370894351942511e+47   1.2605816579032850e+46   7.7441685084156254e+45   -1.1442323461654484e+46   -2.7147547036149347e+45   -2.2620350800552507e+46   -2.9442474485463303e+45   -2.9139126895988022e+47   -2.6960481067144805e+47   4.6420506826172241e+46   7.3394102798778673e+45   1.9579830212542180e+46   3.3633655933921229e+46   -9.2010307299980186e+46   -7.5429116796019560e+46   2.4477435995513486e+47   1.1394730459266767e+47   1.0565668748680295e+45   1.1320317283434609e+46   2.8844985531183840e+46   3.3159599401597787e+46   -2.4052725761973949e+47   -2.7005619019810172e+47   2.7404951272726572e+47   2.8150969361533304e+47   -1.0829522423675285e+46   3.6628375939192660e+45   -1.6895030553184805e+48   -6.7312810826506863e+47   3.1965085813834642e+47   3.1317193082347980e+47   4.3484597982733200e+46   7.6158701468391348e+46   2.0781829568354759e+48   1.0745528894404258e+48   -8.6919332426716812e+47   -2.6068929862583546e+48   -1.3348333853329771e+47   -1.2016537099264391e+47   1.2951740883329230e+47   1.5597134958216602e+47   -5.3952245654410717e+47   -6.2159636124122337e+47   -4.5989457456207313e+47   -4.7368653527932686e+47   -3.0142970438937315e+45   -1.2758499467952263e+46   5.3559040987526076e+47   1.1460178205134008e+48   -3.3291410570647546e+46   1.4702779164330997e+46   -1.2805760964878675e+48   -4.1342623368494799e+47   -6.0231368683328649e+45   5.7990081695226931e+46   5.7167282613482956e+47   3.0205979372299908e+47   1.5623283734807012e+47   1.5621191880051240e+47   -9.4962291626454701e+47   -1.8562310210157952e+48   -5.6130159560967589e+47   -5.9505083838863808e+47   -7.5506521862537799e+47   -2.3272432329537752e+47   7.9735334127252185e+47   2.4909545280619005e+48   -2.5376183344932846e+46   -4.1489786569913802e+46   1.8593231186197437e+47   7.7186893295672395e+47   3.8969530078677649e+47   3.4980872153048815e+47   6.1700185780175668e+47   5.8816693921965592e+47   6.8846638496308477e+47   7.7838712986171641e+47   5.9651050011765676e+47   1.8038735251424794e+48   -3.0435654990983518e+47   -7.7241193774896565e+47   -1.3386433911963602e+48   -3.0707209398437356e+48   7.5174883822883436e+47   4.5794631058475402e+47   1.4838786223124828e+48   5.9206889978844788e+47   2.4068665272143305e+49   2.3892276952861601e+49   -1.9793088035004116e+47   -2.0182727267602325e+47   -1.8696524353987644e+47   -1.5555864551471747e+47   1.1249756141695664e+47   1.0655122748557416e+47   3.4920678992543841e+48   9.5520598040172616e+47   -4.6540508860346989e+47   -3.7686938349573713e+47   -4.0134298662520050e+45   -1.0598252619850081e+46   -8.4000954730861220e+46   6.0020890604298783e+45   -1.1222431140817934e+46   -3.4898897978468455e+46   -1.4565039983888106e+48   -5.9151535518254243e+47   1.1305777371443625e+48   8.5274064813268907e+47   -8.2924054208796542e+47   -7.9205533002101599e+47   7.1294468258283461e+46   5.1378559108631760e+46   1.1085789696577334e+47   8.8025666239184674e+46   4.5598628158688647e+45   1.1059993385067831e+46   6.4810372573566021e+46   5.3235859296754749e+46   2.9184865786280988e+47   3.1193115785582806e+47   2.3300448123489714e+47   2.4925569561410997e+47   2.2922992660078017e+47   2.1878865384279945e+47   1.7933260154345703e+47   2.0733215304668235e+47   -3.4256576019119726e+46   -3.2584104231827582e+46   -4.1486659679524423e+46   3.9578794484316895e+45   </DataArray> 
</CellData> 
</Piece>
</UnstructuredGrid>
</VTKFile>