<?xml version="1.0"?>
<VTKFile type="UnstructuredGrid"  version="0.1"  >
<UnstructuredGrid>
<Piece  NumberOfPoints="387" NumberOfCells="708">
<Points>
<DataArray  type="Float64"  NumberOfComponents="3"  format="ascii">0 3 0  0 -3 0  6 -3 0  6 3 0  3 -3 0  6 0 0  3 3 0  0 0 0  3 0 0  0 -1.5 0  1.5 -3 0  1.5 3 0  0 1.5 0  6 -1.5 0  4.5 -3 0  6 1.5 0  4.5 3 0  4.25 -1.25 0  1.75 1.25 0  2.25 -1.5 0  4.5 0.75 0  1.541666666666667 -0.2083333333333333 0  3.219827586206896 1.521551724137931 0  1.125 -1.875 0  4.875 1.875 0  0.8702651515151515 0.631628787878788 0  2.25 2.214285714285714 0  3.316176470588236 -1.904411764705882 0  5.214285714285714 -0.75 0  5.03125 -2.03125 0  0.96875 2.03125 0  4.041666666666667 -0.2083333333333333 0  0.8205128205128206 -0.9134615384615387 0  3.942582294752138 2.189194098250713 0  3.061487638533674 -0.968243819266837 0  2.192708333333333 0.4427083333333334 0  4.157850026972511 -2.182329047049442 0  2.331456616463011 -0.5285296485744057 0  3.654761904761905 0.5654761904761902 0  5.25 1.125 0  2.563673341677096 -2.280663329161452 0  5.126674107142857 0.1283482142857142 0  0.75 -3 0  0 -2.25 0  6 2.25 0  5.25 3 0  0.7680051888903191 -0.1384245958639337 0  1.617229471026718 -1.006949429867069 0  4.218940341429579 1.468686552856807 0  3.75 -3 0  2.25 -3 0  0.75 3 0  5.25 -3 0  6 -0.75 0  0 -0.75 0  0 0.75 0  2.25 3 0  6 -2.25 0  0 2.25 0  3.75 3 0  6 0.75 0  1.787573018358365 -2.279142327213878 0  3.195025188237337 2.273430909158844 0  2.528159645294386 1.151699106559287 0  1.041598427383826 1.322848427383826 0  1.520951704545454 0.4634232954545453 0  1.580357142857143 2.325892857142857 0  4.919642857142857 -1.361607142857143 0  4.54981623521892 -0.6483700862895494 0  2.99317863826574 0.6697091957925523 0  3.450169349029507 -0.4574865881858001 0  3.605016126014028 -1.323102984840902 0  2.745144658907412 1.882241931337371 0  0.4898065586600511 1.092777516238393 0  0.5 -1.875 0  1.217028489597945 -2.469323836800685 0  1.659912685567181 -1.604738056701542 0  5.4375 1.6875 0  5.34375 2.34375 0  4.52741779500503 2.384139265001677 0  3.375 -2.514804579549941 0  0.5446428571428571 -2.455357142857143 0  2.766554087216865 -1.745795909102064 0  4.525516559010988 0.1490283123570637 0  3.87554132162248 -0.8280516069565407 0  4.53622906132958 -1.76963146596888 0  0.4243951612903226 1.875 0  0.554851858345021 2.446861709948876 0  5.575604838709677 -1.875 0  5.445148141654979 -2.446861709948876 0  4.875 -2.575604838709677 0  1.440573466105381 1.721823466105381 0  2.193519495405082 1.631799415080963 0  5.472630128027442 -1.330813078900983 0  4.750126894286386 1.343813447143193 0  5.607142857142857 -0.375 0  2.625 2.607142857142857 0  0.3921763197810531 0.375 0  5.60901753622775 0.3750000000000001 0  1.125 2.613454943235572 0  3.701856738980915 1.163867513386733 0  3.736112850688509 1.696746876851408 0  3.519183195491339 0.06065128742606851 0  3.973620778217027 -1.693401606145563 0  0.8125 -1.444978632478633 0  1.256657745408029 -0.6381828923025001 0  0 -1.125 0  5.019997778514942 0.6475044429701156 0  4.125 3 0  1.285569332703024 0.8955310332120207 0  0 -0.375 0  0.4638922275641027 -0.5625 0  2.056635259780241 -0.07226025978024064 0  2.130475508371123 -1.000827820434028 0  2.677484372338113 -1.267299126394495 0  2.848680878891876 -0.4956836878192376 0  4.937901885089369 -0.3340245904575954 0  4.393563081308854 1.919544166973803 0  4.053859126323572 0.2813938488760716 0  1.181051704329518 0.1167440895674965 0  1.971354166666667 2.607142857142857 0  4.875 3 0  2.519350561152006 0.08093582719875507 0  3.139443301924015 -1.442524927271905 0  6 2.625 0  1.849169256239503 1.945480934753207 0  1.867196483071171 0.7892354369530077 0  1.192506522009051 -1.184888428863342 0  3.375 3 0  3.603234392481833 2.536866305538572 0  3.846752908916648 -2.537707634073423 0  2.014339897513945 -1.886932065281681 0  4.038392037966526 0.8363324773944992 0  4.421242701722609 -2.552534687860327 0  3.715389848650903 -2.108856956172843 0  2.985668138820625 1.127780908772207 0  0.4500794934449803 -1.173696061598557 0  3.366760888116476 0.8891914618875614 0  1.869163043700093 -0.6107175804171328 0  2.175114838273305 -2.53928723780967 0  3.014417665538299 -2.241523065744933 0  2.625 -3 0  2.819968145332426 -2.617202329573456 0  5.625 1.3125 0  5.563263538826679 0.814027077653358 0  5.625 3 0  2.550041671270923 0.7074928970804664 0  4.014583091741168 2.59891853892166 0  0.6440729668673318 1.499523832583132 0  5.219449799568244 -1.660557808485412 0  3.474012636702472 -0.9300738420779746 0  0.8125 -2.142857142857143 0  1.875 -3 0  4.945010515846405 2.554471797033147 0  2.611388969012422 -0.8478354915063726 0  3.223746055611014 0.3371683159691745 0  4.843939757110898 -0.9483610977948225 0  4.66556954816842 -2.220888354477256 0  4.125 -3 0  4.448108395110625 -0.2524000502731018 0  5.63671875 2.05078125 0  2.822484133964224 1.491327727709286 0  3.378213092764193 1.903125093887009 0  5.607142857142858 -0.9231200445788541 0  2.12639693023183 1.100450516019641 0  5.625 -3 0  0.375 3 0  0 2.625 0  6 -2.625 0  0.3931307155906299 -0.01856779822591927 0  0.7651723094668359 0.253768144801553 0  0.8549199714190221 -0.5218333744252657 0  1.421989550604507 -2.133299471886336 0  1.582611957351803 -2.615166692128227 0  4.420331038793115 1.133144382396504 0  0.375 -3 0  0 -2.625 0  5.078156723571596 1.54697017071479 0  1.877250715260938 -1.288801575378032 0  2.409169073010687 -1.916147168931784 0  1.146151077069952 -0.268000681695328 0  1.726784828652036 0.1335728643263411 0  2.745628549924675 0.3838821021397905 0  3.011490900297165 2.613625569196862 0  5.62463365164608 -4.137655439684362e-05 0  1.875 3 0  1.125 3 0  6 0.375 0  2.625 3 0  6 -1.125 0  6 -0.375 0  4.875 -3 0  6 -1.875 0  3.375 -3 0  1.125 -3 0  0 -1.875 0  0 0.375 0  0 1.125 0  0 1.875 0  6 1.125 0  6 1.875 0  4.813017731148975 0.9677363687196439 0  2.807371623148303 2.264962208227767 0  0.3692953377255688 0.7436406761680247 0  5.615625 2.615625 0  0.9395725521479794 0.9812935874921043 0  1.390920759130215 1.238984550166515 0  0.9588795022085095 1.672288500195331 0  0.87712392565124 -2.641031728267331 0  0.3665732993114588 -1.532068934251388 0  1.841944504733106 1.591700334213738 0  4.832970185136452 0.3385359233091246 0  4.169083540479082 -0.5746148619765254 0  5.281697083409333 -0.2046640461936881 0  4.072845380968044 1.784516523483641 0  1.293029195762321 -1.543079049035419 0  4.878733886054284 -1.720697370582964 0  3.609167475697567 -1.687579152754035 0  4.836981942878573 2.222259978217028 0  4.204938267037067 -0.9128589669335569 0  5.183079748175263 -1.111742407358677 0  1.22880920402559 2.273525645756405 0  1.469404041858679 2.654509729682302 0  4.566761045622856 -1.414165869120005 0  4.531680518427715 1.606803989975667 0  1.918929241273175 2.27471131819245 0  3.526908551984126 2.207147627530056 0  1.85683899811842 0.4533569963423589 0  1.173935704088662 0.4636872214645547 0  2.116602160898525 -2.207718541460878 0  4.51821874648995 -1.042568353750147 0  2.721551512787618 -0.1859357475290837 0  5.294921875 2.001953125 0  5.288671874999999 2.670703125 0  2.199940744527116 0.7756512213396931 0  4.090519467638897 1.163401080812838 0  2.298177083333333 2.670581371753247 0  2.484362362207526 -2.687319997637033 0  3.300530569898859 1.207053005217563 0  3.936078051808127 -1.362164062673065 0  5.341218841330105 0.5689885832563615 0  4.226314635599414 0.5638853401248238 0  2.524510956818563 1.635483567726497 0  0.3219546452225031 1.389066019009203 0  3.139061555368706 -0.3133905221155423 0  3.145569907612562 -0.6461828528638952 0  3.701427442033566 -0.2272880199383185 0  1.686782510365738 -1.934662341426927 0  2.427696494631844 1.944064773844184 0  3.901817839425732 1.422433381251312 0  2.356489883772755 -0.2025512972825912 0  4.820757576351118 -0.01647699434507374 0  3.064415631228375 1.809719380809516 0  4.643002705009462 2.69782572459795 0  4.31624250429496 2.728112685900672 0  1.520100694408069 -1.314302747998057 0  3.754559308601717 -0.5375020107416889 0  0.25 -2.0625 0  0.8125 -1.826636904761905 0  4.861738621091127 -0.6367294570749906 0  1.545149590740081 2.015832101819233 0  3.857113324620078 0.04127675193819436 0  0.2479605082936806 -0.9375 0  4.21293081604216 2.352874368135467 0  3.123697687162562 -2.708090473740421 0  3.415275466010259 -2.202892416689829 0  3.601103065320932 -2.727566580522146 0  1.558629964945672 -0.5289921609136927 0  3.324859026263307 -1.198136798699183 0  2.424350759683917 -1.092246517929194 0  2.746461744851735 0.9398108087856579 0  0.8882026075771248 2.364936378889839 0  0.8066140242673685 2.679750706449505 0  4.504454978490482 0.4491616076730165 0  4.26881784709759 -0.009649566552704852 0  1.3125 -2.75919801263958 0  1.120577805361368 -2.179971784090952 0  3.734048623985226 0.8602850349907256 0  3.527828882622877 1.432983527791925 0  1.959527908877504 -1.578124930685265 0  0.7602573574724077 1.220872343399509 0  0.6691217533356228 0.8531987603309893 0  1.877213035764122 -2.564340152892596 0  3.32172153715047 2.685939810104955 0  4.285565286275464 -1.569057178671076 0  4.227521511146333 -1.876903861267543 0  5.34375 1.40625 0  5.71875 1.59375 0  1.56245959534423 0.766197796710638 0  0.2458241530773257 2.4375 0  0.2794123857609179 2.138568368155198 0  5.754175846922674 -2.4375 0  5.720587614239082 -2.138568368155198 0  0.6472458227887359 2.124973059628837 0  5.124241021325378 -2.352544055105642 0  5.189172233440652 -2.675873509996353 0  5.364643151640443 -2.12768524739804 0  2.298896485720138 1.348573610321417 0  0.6008689899200503 -2.745193425346304 0  0.307092513690391 -2.651812055231556 0  0.2683745826107009 -2.363146293324415 0  0.5223214285714285 -2.165178571428571 0  0.3925308914031174 2.699891746740618 0  5.607469108596883 -2.699891746740618 0  2.138365140930822 1.917102089073091 0  1.25507379660067 1.953406658386351 0  4.135759889512124 -2.476847355718572 0  0.5330865684534913 -0.8980875812659357 0  2.548249345531056 -1.538893887888457 0  2.67686064875775
[...]
<CellData  Scalars="f_26-2"> 
<DataArray  type="Float64"  Name="f_26-2"  format="ascii">8.8517343589348955e+64   5.6678715132737243e+65   5.1715328715811706e+65   1.2466942744800737e+66   2.7213344784854700e+65   4.2961775565455175e+65   -2.1250697756508369e+65   1.4603530080101757e+65   -5.4802278389015411e+63   1.3113468604118115e+64   2.2773865880373533e+65   -4.8279379521896309e+65   -1.8909783889270516e+65   -4.3801782410215924e+65   -3.2329036076570055e+63   -1.1048447925595569e+65   -3.9532086873802236e+65   5.7021657001410001e+64   -9.0462180342796313e+64   -2.7566081640416724e+64   3.4866010744307421e+64   -1.5369224495522138e+65   -1.3334243140302517e+65   4.3364224561850084e+64   1.1050746016175810e+65   -4.4005096883780573e+64   7.0780698775044373e+65   9.5773390975550469e+64   1.2377483336465329e+65   -1.3910595327944812e+64   4.1110999571916078e+64   -2.3877034335353627e+65   -5.8487166964327254e+62   -4.3913673066480532e+65   3.2514801332611318e+65   3.0659181509626228e+65   -9.5029803637337719e+63   2.7135101882412114e+64   -3.5058418761841172e+65   8.2314580148183217e+64   1.6035161054439935e+65   -8.0531910477779803e+63   -2.3244915053758420e+65   -2.5103091555280344e+65   -7.5941509495365100e+65   -3.4414036322492474e+65   -3.0394334316369593e+65   -9.5624646118354333e+66   5.2419375159031867e+65   -4.3204598591873674e+65   4.5724424235069436e+65   -7.0465551681398176e+65   4.1026433819525136e+65   8.1222517801982236e+64   3.3742142455178353e+65   2.9795231434872253e+65   -5.3979571169929982e+65   -2.4484744336575366e+65   -1.3977775267887900e+64   -1.6797530466540588e+64   2.4421875684013234e+64   3.8554781487501404e+64   -2.3656545351167019e+64   -8.2804593281830748e+64   1.6340339760107244e+66   -3.0333974894877009e+66   2.1789976746612551e+64   -1.2256218663632206e+66   -6.8383692501782058e+64   1.7864094235244414e+65   -8.5777254431416481e+64   -3.3742943577803510e+65   1.1259232151225006e+65   1.3249061610049627e+65   -6.0709384056080741e+64   -1.7401464556599255e+65   4.3837679384005385e+65   2.6167861106815833e+64   -1.4588218124662294e+65   -2.9358421674462965e+63   -2.9570178136479853e+64   -1.6647184113468105e+64   -3.2444939384120225e+64   6.9056355365240123e+64   5.8908546365320741e+64   1.1325992771657832e+65   -4.3551451146467995e+64   9.2553308774933949e+63   -6.0995175563407014e+64   -1.1323409280957435e+65   2.8565126068150408e+64   -2.1840276106671305e+65   -8.2821669945323062e+64   1.8789636197614316e+64   5.4791687301831628e+64   4.6623798088419149e+64   -9.3306226348526898e+64   -1.3308715228722701e+65   -7.3113541360963962e+66   3.2405984443009607e+65   2.9718488082125777e+65   9.4044151063817806e+65   3.2969300689785727e+65   4.4123138606757210e+65   -1.3147095532787976e+65   -6.6542690941705622e+65   1.1538276647667187e+67   -1.7962793780172118e+65   -2.8070747075903732e+65   1.2638442599122316e+65   2.0279708894581514e+65   -2.0399445384484035e+65   -1.7155351917601461e+65   -5.5303212534155599e+64   -4.1711672298750885e+64   1.2829901794444035e+64   8.1191931460563272e+63   -1.0701013484333529e+65   -2.5722429681973120e+64   2.1968531222853959e+64   9.1947828343138425e+64   -8.9268496015291224e+63   -1.3546675003531628e+65   2.2360723391092977e+64   6.3164977265006415e+63   -9.2434763235166943e+63   -1.8418950432836601e+64   1.9045312559362565e+66   -2.5662629070424160e+63   -3.2077496377482539e+65   -6.1367344855039587e+65   1.5003445590017342e+65   1.1937638233802833e+66   -8.2742345868075782e+64   -1.1837145865535650e+65   -1.4434648935969300e+65   2.6542984910304926e+66   8.4182878393227964e+65   -1.4243891393805045e+65   -2.3536590866402346e+65   -1.9952341739085738e+65   -2.2751110991350333e+65   -1.6076538293794425e+65   -6.1497378325509007e+64   1.9772675809714121e+64   -4.2847524955877631e+63   5.7930800070919704e+65   2.8038148192304423e+65   7.4416706292246638e+63   2.8365972625687492e+65   -2.9595871926466014e+65   -7.7277820989187315e+65   -1.7478616421351741e+65   -2.8262034832206087e+65   5.6402921852663094e+63   -2.1742973713495936e+64   8.1540536445211950e+64   9.4617694356107352e+63   -3.6356586521034469e+66   -5.5383054275083196e+65   -5.3626921212483568e+66   1.8688434669841950e+65   9.9775571087939968e+64   1.3823619447052764e+65   1.5248757207828977e+65   1.2823489204472725e+65   1.1374074966282431e+65   1.9368278613893235e+65   4.3346790740681680e+64   2.2877194895061410e+64   -1.1249064902290746e+65   -1.4323859641748110e+65   -6.7484800087138589e+65   -7.1529128870170581e+65   -1.3772136257146303e+65   -7.5089876079346591e+64   1.6507449602700469e+65   2.7157408141491696e+65   1.8794163168158453e+65   9.3346576472898732e+65   5.3843440908940132e+66   9.1108093516688654e+65   1.4340800404205534e+64   -2.5190221301251004e+64   3.1327377327277851e+64   8.9818479285350293e+64   1.9480453602376879e+65   -5.2394241713120739e+65   -3.9713805975682093e+64   -1.0228166689074910e+64   -6.0552159584418959e+64   -5.6791199658122917e+63   3.2917402798382960e+65   3.8681960767209075e+65   2.3257146015731934e+65   2.9825667895600275e+65   3.8493261055307599e+66   6.6685502734662009e+65   2.6950786768459639e+64   2.4022860702313718e+65   2.5388747844163200e+65   -2.3148752739896097e+65   -2.7375587248695763e+65   -3.0043352690750338e+65   -1.6975848970811658e+65   1.5058037054420887e+64   3.4987541224981120e+64   -1.2009782599229131e+65   -8.2401107514569322e+64   1.4442488929928094e+65   3.0468901222372952e+65   -1.0917206161958005e+65   -1.0558089124439522e+65   1.3554252896274038e+65   1.8493963863714574e+65   -6.8298653873821505e+64   1.1802477045265881e+65   8.8115659668235616e+64   -3.3141821267999566e+65   -2.1327265554707664e+65   -1.6999907162933804e+66   -2.6977342849112729e+66   6.1341143997859622e+66   4.9367824980277670e+66   -6.1988900872351148e+64   7.9138993714971539e+66   8.0403290097568135e+66   -8.2762703872522891e+63   -3.6308577916574424e+64   7.1897923803711822e+66   3.5019468050997088e+66   -1.0344583362023409e+65   2.7270151319907973e+64   1.6217511976975933e+63   1.4495036897205215e+64   6.4703479613692102e+64   7.0922937301952671e+64   1.0920617071171052e+66   -1.6914321690523370e+65   -4.1631753662787890e+66   -7.6475397875593359e+66   -8.9541095631055212e+65   -9.8910594206502141e+65   2.3385195728517882e+65   1.7935734388535029e+65   -8.3238004138217616e+64   7.9243932086717366e+63   -8.1768553437237527e+63   -5.1482248406567019e+64   -1.1161233066418690e+64   3.8658345625319640e+63   -1.2214659387966504e+66   -1.2588419025625993e+65   -1.2457685701686450e+65   -4.8729724851774435e+64   6.5810485845664544e+66   -2.9679777112784537e+64   -8.5310553055404960e+64   -1.0078658378274977e+65   -1.5953923214734517e+65   7.2060151281067367e+64   -9.3848248163199172e+64   -4.5537532772992541e+64   1.5662062572861324e+64   -2.0297685999274574e+65   -4.9010585044417972e+65   -8.3662766241805136e+64   3.5822697558542453e+65   -7.3426579512237296e+64   -1.1905386110455529e+65   -1.5049865466026438e+65   3.4482043518472476e+64   -1.9159702650376321e+66   -6.0788236016406361e+64   1.0640916390027956e+65   8.9048243127435793e+64   -6.4046498963681381e+65   1.8765004375565612e+65   5.3373458397553062e+65   7.3665409377463494e+65   -1.9526796313680138e+66   -1.4392636693981634e+65   -3.0720981865426875e+65   -2.9784496694862573e+65   -1.7337812748069602e+67   -7.5658453904778449e+66   -1.6864725933214679e+67   -9.9774823966498737e+65   -2.4721936273010114e+65   -8.9921707403235435e+65   3.7485904851349752e+65   5.1301084220695605e+65   1.3909490761012791e+65   1.0931349665055205e+65   2.1447530082056557e+65   1.0478302961926398e+65   1.0585369607177910e+65   1.3816972461973960e+65   -1.8313817784503025e+64   -4.2877611789895504e+64   2.9443634627616067e+66   1.3310775937309208e+66   2.9806305066817634e+64   3.6678541450277678e+66   2.3516052873945906e+65   1.4991574809370351e+66   2.6943236776822566e+65   3.6656706068807409e+65   1.8722438439323970e+66   5.0202280298163204e+66   1.4909855048162524e+65   2.8896929688022631e+66   2.8664696509891116e+65   7.5305026791047361e+65   1.4905794957331854e+66   1.2879598308924895e+66   -3.4190095576400311e+65   -2.3175316531829260e+66   1.2940038732974461e+65   2.2190249188525406e+65   -3.4420341470661075e+64   -1.5404716098046080e+66   -7.4895385185454445e+65   -1.4116445372916674e+67   -2.9198226733823888e+66   -3.3947618515562463e+66   -3.2568885605627792e+66   -4.2045451663546449e+65   -8.3434788229571149e+64   -8.5429820022845106e+65   -1.5933717871493816e+65   -2.7671487283211097e+65   2.7419192993868053e+66   6.4895214848272658e+66   6.3278752937505455e+66   3.1698990006638501e+66   -4.1791378585547984e+65   -3.5148228591539493e+65   -7.0769247907855101e+64   -6.3968215357410089e+64   -2.3494163438429285e+66   -1.0993058613526012e+66   9.4354551163808565e+66   4.6919281305119262e+66   5.9120079825995015e+64   2.2888256725081363e+64   7.1200130890274599e+63   1.0904534161218978e+64   1.7579262990023629e+64   1.4795579066653598e+64   -7.9779061697891813e+66   -3.7192773228702795e+66   -4.8114316653165991e+66   -2.3372114130230047e+66   -2.4496525581468100e+64   -3.0572633439303798e+64   -2.0148430540360248e+65   -1.4265793962509292e+65   -7.9082444526239404e+64   -9.3391142747601495e+64   1.2684179793407888e+65   -7.7966329601415712e+64   -2.2683245401444504e+65   -3.8781694418164215e+65   6.0105080161216725e+65   8.0036114828692840e+65   -1.6936206848113629e+64   4.4284125344335167e+63   7.5223777483842134e+64   8.3796120187608817e+64   -7.7666111725746988e+65   -8.3394416948905894e+65   -4.1321544533358917e+64   1.6251720263464231e+64   -9.4808688015339258e+64   -5.7622499084509956e+64   2.1351648228793153e+64   -3.2204762395753544e+64   1.9535832310577844e+66   7.4477755712751694e+65   -1.9276926941264367e+64   -2.4813800983906918e+64   -4.6158790319466368e+65   -4.8933890361264706e+65   -5.5031342224647242e+63   5.5877116979986006e+64   -1.9381145031998998e+65   -8.7176989944406996e+64   8.6754353061306227e+64   6.2275330698936359e+64   2.7993125878260857e+64   6.0469496916646240e+64   2.8090869943874448e+65   -2.0107997086469987e+66   -2.3166231990946787e+64   -5.6857278414912131e+64   7.5635394565094568e+64   4.3112584870002469e+64   -7.6534946387267236e+65   -6.6872167741885855e+65   4.3630638937066527e+66   8.8066640473052205e+66   3.3106239274473105e+64   5.9747221436222393e+63   -3.5120404242041741e+65   -2.7905289391769853e+65   9.5788624415713217e+65   1.6883773029602785e+66   -4.5502367286626798e+66   -3.4011565720771830e+66   -1.7109091850845009e+65   -2.0265671051612349e+65   3.3754051274860182e+64   5.5153908972541846e+64   -1.6659643656933803e+65   -6.9446767335367188e+64   -2.2398774803128263e+65   -2.4702213869730784e+65   -2.3406752215117596e+64   -5.0441091802432874e+64   -1.5412776230855569e+66   -3.4212444706991183e+65   -2.7672804960672942e+64   -3.6296305409545573e+62   4.3838171279506352e+64   2.7095270003250824e+64   -5.9412704206903900e+64   -5.7242502742779366e+64   3.8336496610005587e+65   3.9014358348341579e+65   -5.5933671044314658e+64   -1.3488624375582987e+64   -3.1608966056868560e+65   -2.5798586825463485e+65   7.9194548318333821e+64   1.1797197338603325e+65   -1.7233114978502298e+65   -1.8084781473423298e+65   -1.0829100333918223e+65   -1.2399457350764028e+65   3.1659675124241189e+65   4.6464480224213723e+65   6.2030699418605037e+66   2.6505647191746233e+66   4.3310697134374023e+65   4.0466371953879926e+65   1.0499498705774614e+64   -1.6293650793641827e+63   -6.2791826824861565e+65   -2.3678765678779085e+65   1.0692649797209063e+66   1.0490242258708009e+66   -9.5220313138055747e+64   -1.1483618920823418e+65   2.3520001987546745e+64   2.2579291012424818e+64   -1.3820508055669539e+65   -1.0056133156587778e+65   -4.5521846715868111e+65   -2.0292701819488847e+66   -4.9061383454086444e+65   -5.5814026930390027e+65   -2.5895380922230236e+66   -4.2249435419217630e+65   6.8044358322585560e+64   -3.9876155390584142e+64   -1.2323705603673347e+66   -2.3207147624331456e+66   2.1383693581490420e+65   2.4223697934268298e+65   1.2168722570653188e+65   9.0422366239711850e+64   3.1574163128575621e+65   2.2133385328884926e+65   -8.5785555492656764e+64   -5.3014485724492753e+64   5.3356660108111856e+64   1.3403431027915559e+64   3.6859533256601993e+64   -3.7810481548373477e+64   -2.1491208976933894e+65   -2.5583263088848666e+65   -1.3180270008750038e+65   -1.3784198093859885e+65   -3.1783339285966173e+66   -5.8070328809170886e+65   7.7777157797402492e+65   9.0635835703565044e+65   -1.8507749773591711e+65   -1.7032958573731329e+65   -1.6715827985995026e+65   -1.9257682449553659e+65   3.5299918155419202e+65   4.0089605146079119e+65   3.6147205622900156e+64   2.8180935900525346e+64   2.1309994895464734e+64   -1.4008641742654958e+64   -9.4112267189325916e+64   5.9933624990876631e+64   5.1083555262450558e+66   2.2373897028787425e+66   8.5104573138776499e+63   -7.0209180629478138e+63   -6.6914062722433970e+63   5.0113688066860645e+63   -5.6512153368309757e+65   -4.7386125078966933e+65   3.1141239955957026e+66   5.7473019057201144e+65   5.3335604487980480e+64   6.7831943399346824e+64   -5.2372782690588065e+64   -8.1328738569662187e+64   -6.0642672381602264e+65   -3.8261665150836656e+65   2.5047736386456144e+64   9.7706631931081463e+64   5.0606540168734212e+65   3.4406301798162361e+65   1.1132306479729383e+64   1.0774024990278498e+64   9.7061573898602768e+64   5.0480788618180218e+64   -2.8804785847060254e+64   4.4783987835671471e+64   8.8500183009590311e+64   1.4847051435903529e+65   -8.1658474646553779e+64   -6.5788995513197787e+64   -5.4356318036934611e+66   -2.4079698987141425e+65   -1.3372180785760939e+67   -7.4049487841803852e+66   -6.2852659848409321e+65   -5.6500427573939588e+66   1.3354942260812908e+66   1.0407182143712840e+66   1.2485240881005773e+65   8.0067610256512484e+64   -2.0007419384288132e+65   -3.0397794752968853e+65   -2.4889210232645802e+64   -3.0954766060127684e+64   1.1765405809757966e+64   1.4187458248291672e+64   -3.6454408491752885e+64   7.8559545191959985e+63   2.8693002155670300e+65   1.5147902184098034e+65   2.3376908583323872e+65   1.9718349934771869e+65   1.5539682654002523e+65   1.6195409170728300e+65   1.1404709729511436e+65   1.3610605556379030e+65   -5.4669119744892439e+64   1.2346690510438062e+64   -1.9180821301383479e+65   -1.6685114383559641e+65   -1.3566678922354151e+65   -1.5084702661700405e+65   1.2014427040900033e+65   1.3261427299020411e+65   -1.6332146802187578e+64   -1.7464427665487750e+63   4.1578173424656490e+65   9.8127086580776169e+65   -4.9454817664892716e+65   -1.3678638672619390e+66   -1.4861493763686694e+66   -4.8261711929117988e+65   1.0784581743557222e+66   2.3513608288351530e+65   1.6852201605333645e+65   4.2039790395549040e+66   5.7670970908808164e+65   6.9248379126303574e+65   1.4950993811640734e+64   9.1832651983828079e+63   -1.3578362360078546e+64   -3.2246431716653009e+63   -2.6837039000892570e+64   -3.4944436961430250e+63   -3.4568592595939123e+65   -3.1984041724410797e+65   5.5070823645563631e+64   8.7061127922015367e+63   2.3225823172739607e+64   3.9898569862928789e+64   -1.0915486300794226e+65   -8.9484380720301586e+64   2.9038667808688507e+65   1.3518017006283960e+65   1.2472455857469998e+63   1.3423692643492186e+64   3.4220014619534127e+64   3.9338557934684133e+64   -2.8534367638487094e+65   -3.2037410494556806e+65   3.2511760655094700e+65   3.3396800556807528e+65   -1.2851423604946488e+64   4.3425059441004923e+63   -2.0043375935325002e+66   -7.9856325298800177e+65   3.7921377924060729e+65   3.7152758318950124e+65   5.1588041229986473e+64   9.0350686241769049e+64   2.4654276532993113e+66   1.2747830208088413e+66   -1.0311598542676742e+66   -3.0926650336946625e+66   -1.5835659610532394e+65   -1.4255692088195190e+65   1.5365196826554334e+65   1.8503563210430835e+65   -6.4005055853624125e+65   -7.3741627989722024e+65   -5.4558651020404039e+65   -5.6194778387138719e+65   -3.5825766483143862e+63   -1.5143223725362452e+64   6.3539265425873835e+65   1.3595655284628577e+66   -3.9495237060495880e+64   1.7441920051889699e+64   -1.5191994970256568e+66   -4.9046436742390722e+65   -7.1454475636431012e+63   6.8795737769684147e+64   6.7819691037394476e+65   3.5834485651960201e+65   1.8534673047323151e+65   1.8532320262465745e+65   -1.1265555551655308e+66   -2.2020700649472492e+66   -6.6588577916434177e+65   -7.0592383798347261e+65   -8.9572207862390376e+65   -2.7607791556370765e+65   9.4592976332373133e+65   2.9551119845185196e+66   -3.0105074503271747e+64   -4.9220846577820562e+64   2.2058305339966647e+65   9.1572601101509700e+65   4.6231426552630259e+65   4.1499476531870534e+65   7.3198107309976587e+65   6.9777133712654322e+65   8.1676187444354777e+65   9.2344004562299457e+65   7.0765807176587329e+65   2.1399857132360475e+66   -3.6107001337613386e+65   -9.1634160482694988e+65   -1.5880869003983092e+66   -3.6429201326164661e+66   8.9182784112463265e+65   5.4327884388085879e+65   1.7603811392496654e+66   7.0239375436657530e+65   2.8553327905747832e+67   2.8344056000392996e+67   -2.3481159103784149e+65   -2.3943407072888324e+65   -2.2180310223489078e+65   -1.8454454865178653e+65   1.3345949747926611e+65   1.2640542730816470e+65   4.1427249781992545e+66   1.1331848033198125e+66   -5.5211988390589662e+65   -4.4708789195393249e+65   -4.7635054974263514e+63   -1.2575166341064139e+64   -9.9652396691331387e+64   7.1205391114497315e+63   -1.3313763079701332e+64   -4.1402118002718679e+64   -1.7279099609194740e+66   -7.0173866793092881e+65   1.3412636137097451e+66   1.0116508098611857e+66   -9.8374916878385139e+65   -9.3963457030971285e+65   8.4580226938107976e+64   6.0952973418531326e+64   1.3151704330140824e+65   1.0442952444993480e+65   5.4073896486634625e+63   1.3118175449669049e+64   7.6887456695474795e+64   6.3156180097098979e+64   3.4623410016803578e+65   3.7005906035613332e+65   2.7642521467244639e+65   2.9570452125654285e+65   2.7194635045837975e+65   2.5956000820862382e+65   2.1275169665255185e+65   2.4596870625816432e+65   -4.0643654516182891e+64   -3.8658875243832464e+64   -4.9218046839531465e+64   4.6944448108986746e+63   </DataArray> 
</CellData> 
</Piece>
</UnstructuredGrid>
</VTKFile>