<?xml version="1.0"?>
<VTKFile type="UnstructuredGrid"  version="0.1"  >
<UnstructuredGrid>
<Piece  NumberOfPoints="2534" NumberOfCells="4892">
<Points>
<DataArray  type="Float64"  NumberOfComponents="3"  format="ascii">0 3 0  0 -3 0  6 -3 0  6 3 0  3 -3 0  6 0 0  3 3 0  0 0 0  3 0 0  0 -1.5 0  1.5 -3 0  1.5 3 0  0 1.5 0  6 -1.5 0  4.5 -3 0  6 1.5 0  4.5 3 0  4.25 -1.25 0  1.75 1.25 0  2.25 -1.5 0  4.5 0.75 0  1.541666666666667 -0.2083333333333333 0  3.219827586206896 1.521551724137931 0  1.125 -1.875 0  4.875 1.875 0  0.8702651515151515 0.631628787878788 0  2.25 2.214285714285714 0  3.316176470588236 -1.904411764705882 0  5.214285714285714 -0.75 0  5.03125 -2.03125 0  0.96875 2.03125 0  4.041666666666667 -0.2083333333333333 0  0.8205128205128206 -0.9134615384615387 0  3.942582294752138 2.189194098250713 0  3.061487638533674 -0.968243819266837 0  2.192708333333333 0.4427083333333334 0  4.157850026972511 -2.182329047049442 0  2.331456616463011 -0.5285296485744057 0  3.654761904761905 0.5654761904761902 0  5.25 1.125 0  2.563673341677096 -2.280663329161452 0  5.126674107142857 0.1283482142857142 0  0.75 -3 0  0 -2.25 0  6 2.25 0  5.25 3 0  0.7680051888903191 -0.1384245958639337 0  1.617229471026718 -1.006949429867069 0  4.218940341429579 1.468686552856807 0  3.75 -3 0  2.25 -3 0  0.75 3 0  5.25 -3 0  6 -0.75 0  0 -0.75 0  0 0.75 0  2.25 3 0  6 -2.25 0  0 2.25 0  3.75 3 0  6 0.75 0  1.787573018358365 -2.279142327213878 0  3.195025188237337 2.273430909158844 0  2.528159645294386 1.151699106559287 0  1.041598427383826 1.322848427383826 0  1.520951704545454 0.4634232954545453 0  1.580357142857143 2.325892857142857 0  4.919642857142857 -1.361607142857143 0  4.54981623521892 -0.6483700862895494 0  2.99317863826574 0.6697091957925523 0  3.450169349029507 -0.4574865881858001 0  3.605016126014028 -1.323102984840902 0  2.745144658907412 1.882241931337371 0  0.4898065586600511 1.092777516238393 0  0.5 -1.875 0  1.217028489597945 -2.469323836800685 0  1.659912685567181 -1.604738056701542 0  5.4375 1.6875 0  5.34375 2.34375 0  4.52741779500503 2.384139265001677 0  3.375 -2.514804579549941 0  0.5446428571428571 -2.455357142857143 0  2.766554087216865 -1.745795909102064 0  4.525516559010988 0.1490283123570637 0  3.87554132162248 -0.8280516069565407 0  4.53622906132958 -1.76963146596888 0  0.4243951612903226 1.875 0  0.554851858345021 2.446861709948876 0  5.575604838709677 -1.875 0  5.445148141654979 -2.446861709948876 0  4.875 -2.575604838709677 0  1.440573466105381 1.721823466105381 0  2.193519495405082 1.631799415080963 0  5.472630128027442 -1.330813078900983 0  4.750126894286386 1.343813447143193 0  5.607142857142857 -0.375 0  2.625 2.607142857142857 0  0.3921763197810531 0.375 0  5.60901753622775 0.3750000000000001 0  1.125 2.613454943235572 0  3.701856738980915 1.163867513386733 0  3.736112850688509 1.696746876851408 0  3.519183195491339 0.06065128742606851 0  3.973620778217027 -1.693401606145563 0  0.8125 -1.444978632478633 0  1.256657745408029 -0.6381828923025001 0  0 -1.125 0  5.019997778514942 0.6475044429701156 0  4.125 3 0  1.285569332703024 0.8955310332120207 0  0 -0.375 0  0.4638922275641027 -0.5625 0  2.056635259780241 -0.07226025978024064 0  2.130475508371123 -1.000827820434028 0  2.677484372338113 -1.267299126394495 0  2.848680878891876 -0.4956836878192376 0  4.937901885089369 -0.3340245904575954 0  4.393563081308854 1.919544166973803 0  4.053859126323572 0.2813938488760716 0  1.181051704329518 0.1167440895674965 0  1.971354166666667 2.607142857142857 0  4.875 3 0  2.519350561152006 0.08093582719875507 0  3.139443301924015 -1.442524927271905 0  6 2.625 0  1.849169256239503 1.945480934753207 0  1.867196483071171 0.7892354369530077 0  1.192506522009051 -1.184888428863342 0  3.375 3 0  3.603234392481833 2.536866305538572 0  3.846752908916648 -2.537707634073423 0  2.014339897513945 -1.886932065281681 0  4.038392037966526 0.8363324773944992 0  4.421242701722609 -2.552534687860327 0  3.715389848650903 -2.108856956172843 0  2.985668138820625 1.127780908772207 0  0.4500794934449803 -1.173696061598557 0  3.366760888116476 0.8891914618875614 0  1.869163043700093 -0.6107175804171328 0  2.175114838273305 -2.53928723780967 0  3.014417665538299 -2.241523065744933 0  2.625 -3 0  2.819968145332426 -2.617202329573456 0  5.625 1.3125 0  5.563263538826679 0.814027077653358 0  5.625 3 0  2.550041671270923 0.7074928970804664 0  4.014583091741168 2.59891853892166 0  0.6440729668673318 1.499523832583132 0  5.219449799568244 -1.660557808485412 0  3.474012636702472 -0.9300738420779746 0  0.8125 -2.142857142857143 0  1.875 -3 0  4.945010515846405 2.554471797033147 0  2.611388969012422 -0.8478354915063726 0  3.223746055611014 0.3371683159691745 0  4.843939757110898 -0.9483610977948225 0  4.66556954816842 -2.220888354477256 0  4.125 -3 0  4.448108395110625 -0.2524000502731018 0  5.63671875 2.05078125 0  2.822484133964224 1.491327727709286 0  3.378213092764193 1.903125093887009 0  5.607142857142858 -0.9231200445788541 0  2.12639693023183 1.100450516019641 0  5.625 -3 0  0.375 3 0  0 2.625 0  6 -2.625 0  0.3931307155906299 -0.01856779822591927 0  0.8549199714190221 -0.5218333744252657 0  0.7651723094668359 0.253768144801553 0  1.421989550604507 -2.133299471886336 0  1.582611957351803 -2.615166692128227 0  4.420331038793115 1.133144382396504 0  0.375 -3 0  0 -2.625 0  5.078156723571596 1.54697017071479 0  1.877250715260938 -1.288801575378032 0  2.409169073010687 -1.916147168931784 0  1.146151077069952 -0.268000681695328 0  1.726784828652036 0.1335728643263411 0  2.745628549924675 0.3838821021397905 0  3.011490900297165 2.613625569196862 0  5.62463365164608 -4.137655439684362e-05 0  1.875 3 0  1.125 3 0  6 0.375 0  2.625 3 0  6 -1.125 0  6 -0.375 0  4.875 -3 0  6 -1.875 0  3.375 -3 0  1.125 -3 0  0 -1.875 0  0 0.375 0  0 1.125 0  0 1.875 0  6 1.125 0  6 1.875 0  4.813017731148975 0.9677363687196439 0  2.807371623148303 2.264962208227767 0  0.3692953377255688 0.7436406761680247 0  5.615625 2.615625 0  0.9395725521479794 0.9812935874921043 0  1.390920759130215 1.238984550166515 0  0.9588795022085095 1.672288500195331 0  0.87712392565124 -2.641031728267331 0  0.3665732993114588 -1.532068934251388 0  1.841944504733106 1.591700334213738 0  4.832970185136452 0.3385359233091246 0  4.169083540479082 -0.5746148619765254 0  5.281697083409333 -0.2046640461936881 0  4.072845380968044 1.784516523483641 0  1.293029195762321 -1.543079049035419 0  4.878733886054284 -1.720697370582964 0  3.609167475697567 -1.687579152754035 0  4.836981942878573 2.222259978217028 0  4.204938267037067 -0.9128589669335569 0  5.183079748175263 -1.111742407358677 0  1.469404041858679 2.654509729682302 0  1.22880920402559 2.273525645756405 0  4.566761045622856 -1.414165869120005 0  4.531680518427715 1.606803989975667 0  1.918929241273175 2.27471131819245 0  3.590183783343969 2.184680610175416 0  1.85683899811842 0.4533569963423589 0  1.173935704088662 0.4636872214645547 0  2.116602160898525 -2.207718541460878 0  4.51821874648995 -1.042568353750147 0  2.721551512787618 -0.1859357475290837 0  5.294921875 2.001953125 0  5.288671874999999 2.670703125 0  2.199940744527116 0.7756512213396931 0  4.090519467638897 1.163401080812838 0  2.298177083333333 2.670581371753247 0  2.484362362207526 -2.687319997637033 0  3.300530569898859 1.207053005217563 0  3.936078051808127 -1.362164062673065 0  5.341218841330105 0.5689885832563615 0  4.226314635599414 0.5638853401248238 0  2.524510956818563 1.635483567726497 0  0.3219546452225031 1.389066019009203 0  3.139061555368706 -0.3133905221155423 0  3.145569907612562 -0.6461828528638952 0  3.701427442033566 -0.2272880199383185 0  1.686782510365738 -1.934662341426927 0  2.427696494631844 1.944064773844184 0  3.901817839425732 1.422433381251312 0  2.356489883772755 -0.2025512972825912 0  4.820757576351118 -0.01647699434507374 0  3.064415631228375 1.809719380809516 0  4.643002705009462 2.69782572459795 0  4.31624250429496 2.728112685900672 0  1.520100694408069 -1.314302747998057 0  3.754559308601717 -0.5375020107416889 0  0.25 -2.0625 0  0.8125 -1.826636904761905 0  4.861738621091127 -0.6367294570749906 0  1.545149590740081 2.015832101819233 0  3.857113324620078 0.04127675193819436 0  0.3162874907704933 -0.864918315983958 0  4.21293081604216 2.352874368135467 0  3.123697687162562 -2.708090473740421 0  3.415275466010259 -2.202892416689829 0  3.601103065320932 -2.727566580522146 0  1.558629964945672 -0.5289921609136927 0  3.324859026263307 -1.198136798699183 0  2.424350759683917 -1.092246517929194 0  2.789248065239812 0.8954629970670158 0  0.8882026075771248 2.364936378889839 0  0.8066140242673685 2.679750706449505 0  4.504454978490482 0.4491616076730165 0  4.26881784709759 -0.009649566552704852 0  1.313479173834523 -2.758675889510418 0  1.120577805361368 -2.179971784090952 0  3.734048623985226 0.8602850349907256 0  3.527828882622877 1.432983527791925 0  1.959527908877504 -1.578124930685265 0  0.7602573574724077 1.220872343399509 0  0.6691217533356228 0.8531987603309893 0  1.877213035764122 -2.564340152892596 0  3.304349402914068 2.552016594979913 0  4.285565286275464 -1.569057178671076 0  4.227521511146333 -1.876903861267543 0  5.34375 1.40625 0  5.71875 1.59375 0  1.56245959534423 0.766197796710638 0  0.2458241530773257 2.4375 0  0.2794123857609179 2.138568368155198 0  5.754175846922674 -2.4375 0  5.720587614239082 -2.138568368155198 0  0.6472458227887359 2.124973059628837 0  5.124241021325378 -2.352544055105642 0  5.189172233440652 -2.675873509996353 0  5.364643151640443 -2.12768524739804 0  2.298896485720138 1.348573610321417 0  0.6008689899200503 -2.745193425346304 0  0.307092513690391 -2.651812055231556 0  0.2683745826107009 -2.363146293324415 0  0.5223214285714285 -2.165178571428571 0  0.5169611136983336 2.740349995819724 0  5.607469108596883 -2.699891746740618 0  2.138439274270545 1.947386893596098 0  1.25507379660067 1.953406658386351 0  4.135759889512124 -2.476847355718572 0  2.548249345531056 -1.538893887888457 0  2.771010284190282 -2.05339728351
[...]
<CellData  Scalars="f_26-2"> 
<DataArray  type="Float64"  Name="f_26-2"  format="ascii">-1.1699996611172833e+02   -1.1700008774612246e+02   -1.1699990130032185e+02   -1.1700002748897168e+02   -1.1700000443947498e+02   -1.1699996721547673e+02   -1.1699997752956074e+02   -1.1699999011567911e+02   -1.1700016539087454e+02   -1.1699997765822911e+02   -1.1699998860748363e+02   -1.1699991647653350e+02   -1.1700011902213834e+02   -1.1699990791960555e+02   -1.1699983767866233e+02   -1.1700006808734628e+02   -1.1700005213382019e+02   -1.1699993878523817e+02   -1.1700001179226794e+02   -1.1699989100511948e+02   -1.1699992617260249e+02   -1.1700005360333854e+02   -1.1700014542184755e+02   -1.1700013263386936e+02   -1.1700001856302936e+02   -1.1700006508386269e+02   -1.1700001390664562e+02   -1.1699992178766439e+02   -1.1699999229480919e+02   -1.1700006767677661e+02   -1.1700007914261022e+02   -1.1700019290377331e+02   -1.1700004952672126e+02   -1.1700010780193230e+02   -1.1700006899022682e+02   -1.1699994864412679e+02   -1.1699997675756178e+02   -1.1700001429766721e+02   -1.1700009024152551e+02   -1.1699995411984754e+02   -1.1699997926912992e+02   -1.1699992663005433e+02   -1.1699986780320845e+02   -1.1699986158406527e+02   -1.1699994760985189e+02   -1.1699989373520179e+02   -1.1699987871004274e+02   -1.1700010279057265e+02   -1.1699986156778422e+02   -1.1699988712854422e+02   -1.1699991410991568e+02   -1.1700001853883747e+02   -1.1700005316361278e+02   -1.1699998402191493e+02   -1.1699998896370442e+02   -1.1699988717809171e+02   -1.1699994786301319e+02   -1.1699985643226239e+02   -1.1700017323948458e+02   -1.1700002225193923e+02   -1.1699994602230446e+02   -1.1700015600254412e+02   -1.1699997466965392e+02   -1.1699998642899364e+02   -1.1700006662921251e+02   -1.1700001773366085e+02   -1.1700021114017571e+02   -1.1700009862262152e+02   -1.1699990355428554e+02   -1.1700006716423806e+02   -1.1699991207821527e+02   -1.1699999968736373e+02   -1.1700010217512576e+02   -1.1700005799593796e+02   -1.1699996814105118e+02   -1.1700003091168084e+02   -1.1699995891262647e+02   -1.1699993414065601e+02   -1.1700003300614691e+02   -1.1700011751101114e+02   -1.1700000264839895e+02   -1.1700000094611846e+02   -1.1699996343763075e+02   -1.1699989925710953e+02   -1.1700008267722799e+02   -1.1699980501380243e+02   -1.1699999877274973e+02   -1.1700003425623413e+02   -1.1699992863500631e+02   -1.1699990585708058e+02   -1.1700014910880674e+02   -1.1700003348785435e+02   -1.1700001370201549e+02   -1.1699999699798197e+02   -1.1700001919137873e+02   -1.1700005487468904e+02   -1.1700004183483762e+02   -1.1699989749313742e+02   -1.1699994677618770e+02   -1.1700000455633354e+02   -1.1699987229678852e+02   -1.1699991685695842e+02   -1.1699999468569214e+02   -1.1699998717741711e+02   -1.1700002652641035e+02   -1.1700016335533304e+02   -1.1700003199535186e+02   -1.1700002186394534e+02   -1.1699997546923612e+02   -1.1699996624961844e+02   -1.1699998925310258e+02   -1.1699994240718105e+02   -1.1700000939314403e+02   -1.1699997688603473e+02   -1.1700025857365003e+02   -1.1700006456134702e+02   -1.1699998201156191e+02   -1.1699998261952791e+02   -1.1700000166872454e+02   -1.1700010301358435e+02   -1.1699992477808387e+02   -1.1700003802901075e+02   -1.1699994068808438e+02   -1.1700002624441782e+02   -1.1700009472042150e+02   -1.1700008067658349e+02   -1.1699995670981701e+02   -1.1700002061056941e+02   -1.1700023984689675e+02   -1.1700008956968765e+02   -1.1700004925137513e+02   -1.1700002103034433e+02   -1.1700012798698583e+02   -1.1700001366473529e+02   -1.1700006051065729e+02   -1.1699999759503221e+02   -1.1699998122969173e+02   -1.1699998474009715e+02   -1.1700003546765069e+02   -1.1700001639982543e+02   -1.1700000629806578e+02   -1.1699995228514021e+02   -1.1699984365920892e+02   -1.1699997265027005e+02   -1.1700009312645609e+02   -1.1700001468279180e+02   -1.1699990702578580e+02   -1.1700009057637736e+02   -1.1700008120663425e+02   -1.1699995761109933e+02   -1.1700003144209748e+02   -1.1700001240623293e+02   -1.1699998149538776e+02   -1.1699995511304799e+02   -1.1699993754448755e+02   -1.1699997595274755e+02   -1.1699991190860682e+02   -1.1700002109142616e+02   -1.1699993209468451e+02   -1.1699997413433489e+02   -1.1700001337322846e+02   -1.1699985992616661e+02   -1.1699984677688514e+02   -1.1700004156761044e+02   -1.1699991135943138e+02   -1.1699995964763207e+02   -1.1699997347450062e+02   -1.1700006845988784e+02   -1.1700006920426239e+02   -1.1699997201139801e+02   -1.1699997460054843e+02   -1.1700002766538692e+02   -1.1700011986926610e+02   -1.1699997888922775e+02   -1.1700005557528996e+02   -1.1699999695579189e+02   -1.1700021666328225e+02   -1.1700007717369181e+02   -1.1700015595255242e+02   -1.1699998014631534e+02   -1.1699994251286698e+02   -1.1700005792091812e+02   -1.1699993223362904e+02   -1.1700002954709737e+02   -1.1700002328786387e+02   -1.1700000105118163e+02   -1.1700006184972587e+02   -1.1699998848255703e+02   -1.1700010733905683e+02   -1.1699996307805515e+02   -1.1700002010720709e+02   -1.1700011459257345e+02   -1.1700011517755335e+02   -1.1699983621570104e+02   -1.1699994966590397e+02   -1.1699989535683312e+02   -1.1699998497539782e+02   -1.1699992326264953e+02   -1.1700005571570047e+02   -1.1700001696943002e+02   -1.1700008967651640e+02   -1.1700002788702611e+02   -1.1699995397914876e+02   -1.1699994242885958e+02   -1.1699993189308498e+02   -1.1699999202462129e+02   -1.1700018520887551e+02   -1.1699997605615820e+02   -1.1700017754882204e+02   -1.1700008156541939e+02   -1.1699990124538171e+02   -1.1699986651907632e+02   -1.1699998756074412e+02   -1.1700004571220072e+02   -1.1699989374278832e+02   -1.1699997689214352e+02   -1.1699994200844056e+02   -1.1699996330714008e+02   -1.1699985270377802e+02   -1.1700006745017842e+02   -1.1700001780136604e+02   -1.1700015304304466e+02   -1.1700010114283884e+02   -1.1699995013400893e+02   -1.1699999145394987e+02   -1.1699996887850510e+02   -1.1699993328649134e+02   -1.1699992995475650e+02   -1.1700000226251589e+02   -1.1699993124792124e+02   -1.1699989324232681e+02   -1.1700009738288507e+02   -1.1700015274428873e+02   -1.1700002546205630e+02   -1.1700004340852152e+02   -1.1700003856796489e+02   -1.1699992192607246e+02   -1.1699995567364829e+02   -1.1700009422339645e+02   -1.1700001923317589e+02   -1.1700005314331797e+02   -1.1700000211411468e+02   -1.1699996661648018e+02   -1.1700000191399207e+02   -1.1700007463951232e+02   -1.1700001138858170e+02   -1.1700011514365207e+02   -1.1699997003525080e+02   -1.1700002831423316e+02   -1.1699997892858383e+02   -1.1700005574661314e+02   -1.1700012139046579e+02   -1.1699997485605311e+02   -1.1699994323210315e+02   -1.1700013191412697e+02   -1.1700009434457949e+02   -1.1699997208334115e+02   -1.1700019425140525e+02   -1.1700003113321593e+02   -1.1700002571830638e+02   -1.1699989008857555e+02   -1.1699995292804675e+02   -1.1699992515770064e+02   -1.1699995204745943e+02   -1.1699985196933339e+02   -1.1699987530397939e+02   -1.1699986401990132e+02   -1.1700008285590997e+02   -1.1700018139647061e+02   -1.1699994266266998e+02   -1.1699992525585685e+02   -1.1700008534879697e+02   -1.1700007180861267e+02   -1.1700003119110197e+02   -1.1700001840970587e+02   -1.1700003765555772e+02   -1.1700005529905562e+02   -1.1699992136789609e+02   -1.1699997625790644e+02   -1.1699998738170639e+02   -1.1699997645800732e+02   -1.1700000971385869e+02   -1.1699998479958683e+02   -1.1700008361036460e+02   -1.1700015027412582e+02   -1.1700002281083840e+02   -1.1700002198914379e+02   -1.1700006640307892e+02   -1.1699998518926189e+02   -1.1700007098832315e+02   -1.1699994672640565e+02   -1.1699982132835193e+02   -1.1699996349139739e+02   -1.1699994167053501e+02   -1.1700015880672169e+02   -1.1700001060354128e+02   -1.1699992410958782e+02   -1.1699994898808140e+02   -1.1699995021173636e+02   -1.1699990911045890e+02   -1.1700031583286491e+02   -1.1699982714692732e+02   -1.1700008675732010e+02   -1.1700001232484131e+02   -1.1700007576809764e+02   -1.1700008895804797e+02   -1.1700004255532545e+02   -1.1699999237419144e+02   -1.1700000577834808e+02   -1.1700004425526291e+02   -1.1699992920515237e+02   -1.1700004546609787e+02   -1.1699997565625783e+02   -1.1699993055210425e+02   -1.1699990800169981e+02   -1.1699987317212286e+02   -1.1700002740087356e+02   -1.1700000335519805e+02   -1.1699995656795197e+02   -1.1700004080295700e+02   -1.1700001689161748e+02   -1.1700005094104009e+02   -1.1699992894671276e+02   -1.1700000152226440e+02   -1.1700009856459988e+02   -1.1699996289797826e+02   -1.1700011049314072e+02   -1.1700006428880845e+02   -1.1700014876241288e+02   -1.1699998926546681e+02   -1.1699996742005166e+02   -1.1699991503397622e+02   -1.1699983905495249e+02   -1.1699998762802825e+02   -1.1699993651864149e+02   -1.1699997880319727e+02   -1.1700011918615643e+02   -1.1699991582213913e+02   -1.1700001275168151e+02   -1.1699997691078143e+02   -1.1699995243452524e+02   -1.1699989720671104e+02   -1.1699994354771874e+02   -1.1700000468286926e+02   -1.1699989461043678e+02   -1.1700015736328011e+02   -1.1700010855178115e+02   -1.1700008054666769e+02   -1.1700001963793537e+02   -1.1700002123361546e+02   -1.1699998978192549e+02   -1.1700000995913192e+02   -1.1699996736295088e+02   -1.1700004505311061e+02   -1.1700000384299025e+02   -1.1699993434067066e+02   -1.1699992196709171e+02   -1.1699999522027474e+02   -1.1699985185663445e+02   -1.1699995127289098e+02   -1.1699990880447217e+02   -1.1699999030669748e+02   -1.1699995052008596e+02   -1.1699995674083181e+02   -1.1699998463834829e+02   -1.1700003139155689e+02   -1.1700003024935425e+02   -1.1699998504223966e+02   -1.1699997463069576e+02   -1.1699998715977219e+02   -1.1700006912519090e+02   -1.1699986884602943e+02   -1.1699998846241439e+02   -1.1699992962377463e+02   -1.1699990562023511e+02   -1.1700008951711986e+02   -1.1700015771279831e+02   -1.1700001387145345e+02   -1.1700002294097760e+02   -1.1699995804953383e+02   -1.1699990144108401e+02   -1.1699985140026683e+02   -1.1699989118928332e+02   -1.1699991656299889e+02   -1.1699996109076740e+02   -1.1700009233109461e+02   -1.1699996008012977e+02   -1.1700000259076430e+02   -1.1699993836079726e+02   -1.1700004595031479e+02   -1.1699999001770037e+02   -1.1700003610145680e+02   -1.1699990507098228e+02   -1.1700005216697976e+02   -1.1700000067010642e+02   -1.1700006456436725e+02   -1.1700010378471190e+02   -1.1700006051693524e+02   -1.1699995882729216e+02   -1.1699993796813492e+02   -1.1699989689856945e+02   -1.1700000598510287e+02   -1.1700005245047974e+02   -1.1700004765301271e+02   -1.1699994292248783e+02   -1.1700002736532916e+02   -1.1699993819839362e+02   -1.1700013203266116e+02   -1.1700009739866435e+02   -1.1700003963587176e+02   -1.1699994192838746e+02   -1.1700005654083029e+02   -1.1700017896651363e+02   -1.1699992527784033e+02   -1.1699998431967153e+02   -1.1699995092673529e+02   -1.1700002163186591e+02   -1.1700003390313621e+02   -1.1699996962882743e+02   -1.1700005218028559e+02   -1.1699994757538254e+02   -1.1700006803738717e+02   -1.1700003112796598e+02   -1.1700006364608335e+02   -1.1699992306107401e+02   -1.1699990871192979e+02   -1.1699990562520058e+02   -1.1699999748349362e+02   -1.1700007779659163e+02   -1.1700013534845428e+02   -1.1700007072968853e+02   -1.1700008798472734e+02   -1.1700002042835042e+02   -1.1700005670004255e+02   -1.1700013885534030e+02   -1.1699999487442727e+02   -1.1700002629502151e+02   -1.1700022409736354e+02   -1.1700016795051704e+02   -1.1700007543076053e+02   -1.1700012133648701e+02   -1.1700017641677972e+02   -1.1700002663695327e+02   -1.1699999156071414e+02   -1.1700016079251340e+02   -1.1699988360761046e+02   -1.1699997342184963e+02   -1.1699997389921450e+02   -1.1700013925429064e+02   -1.1699987776764497e+02   -1.1700002891677073e+02   -1.1699997261023154e+02   -1.1699996786389818e+02   -1.1700007898397821e+02   -1.1699996690216213e+02   -1.1699998270266731e+02   -1.1700006560833855e+02   -1.1700003348847218e+02   -1.1700008681919944e+02   -1.1699990501289557e+02   -1.1699999236183034e+02   -1.1700003762312001e+02   -1.1699988003578072e+02   -1.1699991406586894e+02   -1.1699998396259311e+02   -1.1699992282625472e+02   -1.1699993124588612e+02   -1.1699997510329969e+02   -1.1700002359110118e+02   -1.1699999083089833e+02   -1.1700005570598371e+02   -1.1699999985678004e+02   -1.1699998310769163e+02   -1.1700006481647482e+02   -1.1700000471397425e+02   -1.1700005716801471e+02   -1.1700010901346366e+02   -1.1700007371023473e+02   -1.1700000140657406e+02   -1.1700007796095196e+02   -1.1700015804888542e+02   -1.1699997014549922e+02   -1.1699994325983617e+02   -1.1699999449272087e+02   -1.1699998759717525e+02   -1.1700002005440848e+02   -1.1700004102952676e+02   -1.1699995851724248e+02   -1.1700009876300572e+02   -1.1700004051288272e+02   -1.1700002657619969e+02   -1.1700003399338877e+02   -1.1700010632936153e+02   -1.1700004588820345e+02   -1.1700003836446317e+02   -1.1700005072506175e+02   -1.1700004240704126e+02   -1.1700008940548922e+02   -1.1700012061318132e+02   -1.1700015236209386e+02   -1.1700012414158175e+02   -1.1700000556516336e+02   -1.1700003367933408e+02   -1.1699998992506745e+02   -1.1699995981805694e+02   -1.1700024571731150e+02   -1.1700006340306669e+02   -1.1700012625358448e+02   -1.1700019307683927e+02   -1.1699999100383391e+02   -1.1699998690526110e+02   -1.1700004402913432e+02   -1.1700003097200921e+02   -1.1699999702098741e+02   -1.1699990160939389e+02   -1.1700007271088256e+02   -1.1699997026562239e+02   -1.1699996817169111e+02   -1.1699992409625119e+02   -1.1699998975897562e+02   -1.1700013394889608e+02   -1.1700002321991134e+02   -1.1700005660841595e+02   -1.1700008226524946e+02   -1.1700004756618137e+02   -1.1700006657886669e+02   -1.1699990657049833e+02   -1.1700016273882726e+02   -1.1699999865202005e+02   -1.1699990427546622e+02   -1.1699986805539243e+02   -1.1699988842284985e+02   -1.1700000907382827e+02   -1.1699995959906880e+02   -1.1700000621869172e+02   -1.1700010369523515e+02   -1.1700009257375710e+02   -1.1700009217425000e+02   -1.1700025383779446e+02   -1.1700008963654915e+02   -1.1700001185764206e+02   -1.1699975763772818e+02   -1.1700004269034474e+02   -1.1699999476327358e+02   -1.1699999808418407e+02   -1.1700005771819832e+02   -1.1700011188103186e+02   -1.1700028029482264e+02   -1.1700009120008757e+02   -1.1700002455043183e+02   -1.1699992727960360e+02   -1.1700005540861989e+02   -1.1700025429797741e+02   -1.1700018488649629e+02   -1.1699993388130473e+02   -1.1699995820776736e+02   -1.1700003701259544e+02   -1.1699999390457756e+02   -1.1700013462134341e+02   -1.1700011423560694e+02   -1.1699994206245145e+02   -1.1699990990653474e+02   -1.1699988623666638e+02   -1.1699984575183809e+02   -1.1700004074327205e+02   -1.1700011887640906e+02   -1.1700004615085854e+02   -1.1699993243564926e+02   -1.1699996716774835e+02   -1.1700009193071334e+02   -1.1700014798489838e+02   -1.1700007356177292e+02   -1.1699987109010792e+02   -1.1699983930167380e+02   -1.1699988511205920e+02   -1.1699992831767644e+02   -1.1700002153129525e+02   -1.1700000987780902e+02   -1.1700004922725017e+02   -1.1700006818467214e+02   -1.1700016817875709e+02   -1.1700010992553879e+02   -1.1700011016033564e+02   -1.1700010019323987e+02   -1.1699982431748661e+02   -1.1699989973343536e+02   -1.1700003686361443e+02   -1.1700002214499952e+02   -1.1699990991623987e+02   -1.1699982201329782e+02   -1.1700005680449367e+02   -1.1699994725546648e+02   -1.1700001703556504e+02   -1.1699985687608316e+02   -1.1700007031317497e+02   -1.1699999981207452e+02   -1.1699995144872393e+02   -1.1700010310191973e+02   -1.1700007772947565e+02   -1.1700001961866462e+02   -1.1699999797837192e+02   -1.1699999014846763e+02   -1.1699998185188579e+02   -1.1700003279840313e+02   -1.1699989406660647e+02   -1.1699995820601362e+02   -1.1699989086695648e+02   -1.1699993979704378e+02   -1.1699994876369847e+02   -1.1699997639228616e+02   -1.1700010515328798e+02   -1.1700002213560154e+02   -1.1700008950794358e+02   -1.1700024256957902e+02   -1.1700000965584169e+02   -1.1699998858346407e+02   -1.1700005801509968e+02   -1.1700004375263367e+02   -1.1699993501347217e+02   -1.1699984690500268e+02   -1.1700012233492097e+02   -1.1700009703759235e+02   -1.1699995966446969e+02   -1.1700010263757081e+02   -1.1699991786366114e+02   -1.1700002307902038e+02   -1.1699984634319480e+02   -1.1699975026299830e+02   -1.1699990283660617e+02   -1.1700001024239873e+02   -1.1700005769163542e+02   -1.1700009595686964e+02   -1.1699993390777838e+02   -1.1699986168849675e+02   -1.1699992085895020e+02   -1.1700008487783938e+02   -1.1699999893589712e+02   -1.1699994332244870e+02   -1.1699999968721058e+02   -1.1699977105305805e+02   -1.1700001099186053e+02   -1.1699990702800258e+02   -1.1699992519399882e+02   -1.1700005737707217e+02   -1.1699996809351175e+02   -1.1699997156934384e+02   -1.1700001048581422e+02   -1.1700000086375807e+02   -1.1700006661030025e+02   -1.1700009160964210e+02   -1.1699998603657150e+02   -1.1699999452076544e+02   -1.1700001601980792e+02   -1.1699993395585086e+02   -1.1699989876662720e+02   -1.1699981694207320e+02   -1.1699994094529433e+02   -1.1699985799742015e+02   -1.1700003451664290e+02   -1.1699996300315030e+02   -1.1700001955935903e+02   -1.1700012257902073e+02   -1.1700014238047413e+02   -1.1700010051554537e+02   -1.1700013836885910e+02   -1.1700000028543980e+02   -1.1700004659018956e+02   -1.1699996596135958e+02   -1.1699995350204472e+02   -1.1699998255227979e+02   -1.1699995486921789e+02   -1.1699984124530634e+02   -1.1700011782429887e+02   -1.1700002975141804e+02   -1.1699992636908618e+02   -1.1699992849036080e+02   -1.1699999689499171e+02   -1.1699997213727997e+02   -1.1699997622367906e+02   -1.1699991625135520e+02   -1.1699999856016707e+02   -1.1700002252215629e+02   -1.1699999925005439e+02   -1.1700002688701311e+02   -1.1700001792550769e+02   -1.1699987774131975e+02   -1.1700011666340414e+02   -1.1700009647278941e+02   -1.1699995778963992e+02   -1.1700005270220156e+02   -1.1700004152377834e+02   -1.1699994605730686e+02   -1.1699993746249469e+02   -1.1699999723302983e+02   -1.1700004088922559e+02   -1.1700007763912089e+02   -1.1699994925800591e+02   -1.1700002050690605e+02   -1.1699998302326524e+02   -1.1700003741841708e+02   -1.1699998590339486e+02   -1.1700011027803549e+02   -1.1699988080037332e+02   -1.1699986545485858e+02   -1.1700008066256149e+02   -1.1700008395176697e+02   -1.1699999764453797e+02   -1.1699990995321407e+02   -1.1700004353926703e+02   -1.1699996574830845e+02   -1.1700014570924074e+02   -1.1700004651828563e+02   -1.1700004634569275e+02   -1.1700004445143431e+02   -1.1699995695917967e+02   -1.1699994507765352e+02   -1.1700004060843396e+02   -1.1700008013046697e+02   -1.1699998919042761e+02   -1.1700012496032929e+02   -1.1699991940673587e+02   -1.1699991794891612e+02   -1.1700009557988493e+02   -1.1700007127582300e+02   -1.1700009234041485e+02   -1.1700000117371376e+02   -1.1699998709009853e+02   -1.1700002544203944e+02   -1.1700017499730237e+02   -1.1700016489737945e+02   -1.1700004475481525e+02   -1.1700006661366160e+02   -1.1699997430922703e+02   -1.1700001907537560e+02   -1.1699995684424573e+02   -1.1699986114484778e+02   -1.1700025246353698e+02   -1.1700011015413187e+02   -1.1700007756484671e+02   -1.1700003325275058e+02   -1.1700008973519591e+02   -1.1700002599811286e+02   -1.1700002965259836e+02   -1.1700007903138622e+02   -1.1699995834755744e+02   -1.1700004546140858e+02   -1.1699992981674050e+02   -1.1699999404497504e+02   -1.1700004552059151e+02   -1.1700008229999054e+02   -1.1700009956600634e+02   -1.1700009996537767e+02   -1.1700009675058979e+02   -1.1699989084355343e+02   -1.1699994097785526e+02   -1.1699996960871599e+02   -1.1700018237423963e+02   -1.1700008854797284e+02   -1.1699995742143051e+02   -1.1699997407091676e+02   -1.1700004722492763e+02   -1.1699998242626056e+02   -1.1699996988688065e+02   -1.1699990847134764e+02   -1.1700007528365489e+02   -1.1700004065860678e+0