<?xml version="1.0"?>
<VTKFile type="UnstructuredGrid"  version="0.1"  >
<UnstructuredGrid>
<Piece  NumberOfPoints="2534" NumberOfCells="4892">
<Points>
<DataArray  type="Float64"  NumberOfComponents="3"  format="ascii">0 3 0  0 -3 0  6 -3 0  6 3 0  3 -3 0  6 0 0  3 3 0  0 0 0  3 0 0  0 -1.5 0  1.5 -3 0  1.5 3 0  0 1.5 0  6 -1.5 0  4.5 -3 0  6 1.5 0  4.5 3 0  4.25 -1.25 0  1.75 1.25 0  2.25 -1.5 0  4.5 0.75 0  1.541666666666667 -0.2083333333333333 0  3.219827586206896 1.521551724137931 0  1.125 -1.875 0  4.875 1.875 0  0.8702651515151515 0.631628787878788 0  2.25 2.214285714285714 0  3.316176470588236 -1.904411764705882 0  5.214285714285714 -0.75 0  5.03125 -2.03125 0  0.96875 2.03125 0  4.041666666666667 -0.2083333333333333 0  0.8205128205128206 -0.9134615384615387 0  3.942582294752138 2.189194098250713 0  3.061487638533674 -0.968243819266837 0  2.192708333333333 0.4427083333333334 0  4.157850026972511 -2.182329047049442 0  2.331456616463011 -0.5285296485744057 0  3.654761904761905 0.5654761904761902 0  5.25 1.125 0  2.563673341677096 -2.280663329161452 0  5.126674107142857 0.1283482142857142 0  0.75 -3 0  0 -2.25 0  6 2.25 0  5.25 3 0  0.7680051888903191 -0.1384245958639337 0  1.617229471026718 -1.006949429867069 0  4.218940341429579 1.468686552856807 0  3.75 -3 0  2.25 -3 0  0.75 3 0  5.25 -3 0  6 -0.75 0  0 -0.75 0  0 0.75 0  2.25 3 0  6 -2.25 0  0 2.25 0  3.75 3 0  6 0.75 0  1.787573018358365 -2.279142327213878 0  3.195025188237337 2.273430909158844 0  2.528159645294386 1.151699106559287 0  1.041598427383826 1.322848427383826 0  1.520951704545454 0.4634232954545453 0  1.580357142857143 2.325892857142857 0  4.919642857142857 -1.361607142857143 0  4.54981623521892 -0.6483700862895494 0  2.99317863826574 0.6697091957925523 0  3.450169349029507 -0.4574865881858001 0  3.605016126014028 -1.323102984840902 0  2.745144658907412 1.882241931337371 0  0.4898065586600511 1.092777516238393 0  0.5 -1.875 0  1.217028489597945 -2.469323836800685 0  1.659912685567181 -1.604738056701542 0  5.4375 1.6875 0  5.34375 2.34375 0  4.52741779500503 2.384139265001677 0  3.375 -2.514804579549941 0  0.5446428571428571 -2.455357142857143 0  2.766554087216865 -1.745795909102064 0  4.525516559010988 0.1490283123570637 0  3.87554132162248 -0.8280516069565407 0  4.53622906132958 -1.76963146596888 0  0.4243951612903226 1.875 0  0.554851858345021 2.446861709948876 0  5.575604838709677 -1.875 0  5.445148141654979 -2.446861709948876 0  4.875 -2.575604838709677 0  1.440573466105381 1.721823466105381 0  2.193519495405082 1.631799415080963 0  5.472630128027442 -1.330813078900983 0  4.750126894286386 1.343813447143193 0  5.607142857142857 -0.375 0  2.625 2.607142857142857 0  0.3921763197810531 0.375 0  5.60901753622775 0.3750000000000001 0  1.125 2.613454943235572 0  3.701856738980915 1.163867513386733 0  3.736112850688509 1.696746876851408 0  3.519183195491339 0.06065128742606851 0  3.973620778217027 -1.693401606145563 0  0.8125 -1.444978632478633 0  1.256657745408029 -0.6381828923025001 0  0 -1.125 0  5.019997778514942 0.6475044429701156 0  4.125 3 0  1.285569332703024 0.8955310332120207 0  0 -0.375 0  0.4638922275641027 -0.5625 0  2.056635259780241 -0.07226025978024064 0  2.130475508371123 -1.000827820434028 0  2.677484372338113 -1.267299126394495 0  2.848680878891876 -0.4956836878192376 0  4.937901885089369 -0.3340245904575954 0  4.393563081308854 1.919544166973803 0  4.053859126323572 0.2813938488760716 0  1.181051704329518 0.1167440895674965 0  1.971354166666667 2.607142857142857 0  4.875 3 0  2.519350561152006 0.08093582719875507 0  3.139443301924015 -1.442524927271905 0  6 2.625 0  1.849169256239503 1.945480934753207 0  1.867196483071171 0.7892354369530077 0  1.192506522009051 -1.184888428863342 0  3.375 3 0  3.603234392481833 2.536866305538572 0  3.846752908916648 -2.537707634073423 0  2.014339897513945 -1.886932065281681 0  4.038392037966526 0.8363324773944992 0  4.421242701722609 -2.552534687860327 0  3.715389848650903 -2.108856956172843 0  2.985668138820625 1.127780908772207 0  0.4500794934449803 -1.173696061598557 0  3.366760888116476 0.8891914618875614 0  1.869163043700093 -0.6107175804171328 0  2.175114838273305 -2.53928723780967 0  3.014417665538299 -2.241523065744933 0  2.625 -3 0  2.819968145332426 -2.617202329573456 0  5.625 1.3125 0  5.563263538826679 0.814027077653358 0  5.625 3 0  2.550041671270923 0.7074928970804664 0  4.014583091741168 2.59891853892166 0  0.6440729668673318 1.499523832583132 0  5.219449799568244 -1.660557808485412 0  3.474012636702472 -0.9300738420779746 0  0.8125 -2.142857142857143 0  1.875 -3 0  4.945010515846405 2.554471797033147 0  2.611388969012422 -0.8478354915063726 0  3.223746055611014 0.3371683159691745 0  4.843939757110898 -0.9483610977948225 0  4.66556954816842 -2.220888354477256 0  4.125 -3 0  4.448108395110625 -0.2524000502731018 0  5.63671875 2.05078125 0  2.822484133964224 1.491327727709286 0  3.378213092764193 1.903125093887009 0  5.607142857142858 -0.9231200445788541 0  2.12639693023183 1.100450516019641 0  5.625 -3 0  0.375 3 0  0 2.625 0  6 -2.625 0  0.3931307155906299 -0.01856779822591927 0  0.8549199714190221 -0.5218333744252657 0  0.7651723094668359 0.253768144801553 0  1.421989550604507 -2.133299471886336 0  1.582611957351803 -2.615166692128227 0  4.420331038793115 1.133144382396504 0  0.375 -3 0  0 -2.625 0  5.078156723571596 1.54697017071479 0  1.877250715260938 -1.288801575378032 0  2.409169073010687 -1.916147168931784 0  1.146151077069952 -0.268000681695328 0  1.726784828652036 0.1335728643263411 0  2.745628549924675 0.3838821021397905 0  3.011490900297165 2.613625569196862 0  5.62463365164608 -4.137655439684362e-05 0  1.875 3 0  1.125 3 0  6 0.375 0  2.625 3 0  6 -1.125 0  6 -0.375 0  4.875 -3 0  6 -1.875 0  3.375 -3 0  1.125 -3 0  0 -1.875 0  0 0.375 0  0 1.125 0  0 1.875 0  6 1.125 0  6 1.875 0  4.813017731148975 0.9677363687196439 0  2.807371623148303 2.264962208227767 0  0.3692953377255688 0.7436406761680247 0  5.615625 2.615625 0  0.9395725521479794 0.9812935874921043 0  1.390920759130215 1.238984550166515 0  0.9588795022085095 1.672288500195331 0  0.87712392565124 -2.641031728267331 0  0.3665732993114588 -1.532068934251388 0  1.841944504733106 1.591700334213738 0  4.832970185136452 0.3385359233091246 0  4.169083540479082 -0.5746148619765254 0  5.281697083409333 -0.2046640461936881 0  4.072845380968044 1.784516523483641 0  1.293029195762321 -1.543079049035419 0  4.878733886054284 -1.720697370582964 0  3.609167475697567 -1.687579152754035 0  4.836981942878573 2.222259978217028 0  4.204938267037067 -0.9128589669335569 0  5.183079748175263 -1.111742407358677 0  1.469404041858679 2.654509729682302 0  1.22880920402559 2.273525645756405 0  4.566761045622856 -1.414165869120005 0  4.531680518427715 1.606803989975667 0  1.918929241273175 2.27471131819245 0  3.590183783343969 2.184680610175416 0  1.85683899811842 0.4533569963423589 0  1.173935704088662 0.4636872214645547 0  2.116602160898525 -2.207718541460878 0  4.51821874648995 -1.042568353750147 0  2.721551512787618 -0.1859357475290837 0  5.294921875 2.001953125 0  5.288671874999999 2.670703125 0  2.199940744527116 0.7756512213396931 0  4.090519467638897 1.163401080812838 0  2.298177083333333 2.670581371753247 0  2.484362362207526 -2.687319997637033 0  3.300530569898859 1.207053005217563 0  3.936078051808127 -1.362164062673065 0  5.341218841330105 0.5689885832563615 0  4.226314635599414 0.5638853401248238 0  2.524510956818563 1.635483567726497 0  0.3219546452225031 1.389066019009203 0  3.139061555368706 -0.3133905221155423 0  3.145569907612562 -0.6461828528638952 0  3.701427442033566 -0.2272880199383185 0  1.686782510365738 -1.934662341426927 0  2.427696494631844 1.944064773844184 0  3.901817839425732 1.422433381251312 0  2.356489883772755 -0.2025512972825912 0  4.820757576351118 -0.01647699434507374 0  3.064415631228375 1.809719380809516 0  4.643002705009462 2.69782572459795 0  4.31624250429496 2.728112685900672 0  1.520100694408069 -1.314302747998057 0  3.754559308601717 -0.5375020107416889 0  0.25 -2.0625 0  0.8125 -1.826636904761905 0  4.861738621091127 -0.6367294570749906 0  1.545149590740081 2.015832101819233 0  3.857113324620078 0.04127675193819436 0  0.3162874907704933 -0.864918315983958 0  4.21293081604216 2.352874368135467 0  3.123697687162562 -2.708090473740421 0  3.415275466010259 -2.202892416689829 0  3.601103065320932 -2.727566580522146 0  1.558629964945672 -0.5289921609136927 0  3.324859026263307 -1.198136798699183 0  2.424350759683917 -1.092246517929194 0  2.789248065239812 0.8954629970670158 0  0.8882026075771248 2.364936378889839 0  0.8066140242673685 2.679750706449505 0  4.504454978490482 0.4491616076730165 0  4.26881784709759 -0.009649566552704852 0  1.313479173834523 -2.758675889510418 0  1.120577805361368 -2.179971784090952 0  3.734048623985226 0.8602850349907256 0  3.527828882622877 1.432983527791925 0  1.959527908877504 -1.578124930685265 0  0.7602573574724077 1.220872343399509 0  0.6691217533356228 0.8531987603309893 0  1.877213035764122 -2.564340152892596 0  3.304349402914068 2.552016594979913 0  4.285565286275464 -1.569057178671076 0  4.227521511146333 -1.876903861267543 0  5.34375 1.40625 0  5.71875 1.59375 0  1.56245959534423 0.766197796710638 0  0.2458241530773257 2.4375 0  0.2794123857609179 2.138568368155198 0  5.754175846922674 -2.4375 0  5.720587614239082 -2.138568368155198 0  0.6472458227887359 2.124973059628837 0  5.124241021325378 -2.352544055105642 0  5.189172233440652 -2.675873509996353 0  5.364643151640443 -2.12768524739804 0  2.298896485720138 1.348573610321417 0  0.6008689899200503 -2.745193425346304 0  0.307092513690391 -2.651812055231556 0  0.2683745826107009 -2.363146293324415 0  0.5223214285714285 -2.165178571428571 0  0.5169611136983336 2.740349995819724 0  5.607469108596883 -2.699891746740618 0  2.138439274270545 1.947386893596098 0  1.25507379660067 1.953406658386351 0  4.135759889512124 -2.476847355718572 0  2.548249345531056 -1.538893887888457 0  2.771010284190282 -2.05339728351
[...]
<CellData  Scalars="f_26-2"> 
<DataArray  type="Float64"  Name="f_26-2"  format="ascii">-9.5676725698595569e+35   -1.1823276116060165e+36   -1.7578084099489497e+36   -1.5234891673065356e+36   -1.6841383296866952e+36   -3.0858590221767572e+36   -1.1151763013308136e+36   -1.4459519555103163e+35   -1.2043348596423624e+35   -9.4632453917984311e+35   -8.2808102342860914e+35   -1.6831461170749901e+36   -6.2312043931110887e+35   -2.0504821892570156e+36   -1.7680890700460719e+35   -1.2642172150079222e+36   -1.7020816465100363e+36   -3.8589240777003288e+34   -1.2469828751155892e+36   -7.0672004748412679e+35   -2.1200388411582054e+36   -5.0287270257658472e+35   -1.3570936519986127e+36   -7.0431755387659768e+35   -9.6512168292574970e+35   -1.2520159456397508e+36   -2.2286915392340279e+36   -7.8258762964516695e+35   -7.6389975754255479e+35   -1.1568932990545200e+36   -5.5691989720971144e+35   -5.9060806312333346e+35   -9.8556820623939103e+35   -9.4657558295754537e+35   -1.0165036062618027e+36   -1.1394554035434710e+36   -1.4156624379181346e+36   2.7622465794458477e+35   -1.7538688707278757e+36   -1.2156346357883507e+36   -4.7175888389869731e+35   -1.0913268581559094e+36   -7.9814805229281764e+35   3.7854645674376341e+35   -3.9783445777882830e+36   -1.8934216302847385e+36   -2.4007789096640870e+36   -6.1846384267224119e+35   -1.5362163871661496e+36   2.1179578562951284e+34   -1.6637869084955035e+36   -1.1743552365302058e+36   -5.9424724620831216e+35   -1.2984762818487107e+36   -1.0508900484556585e+36   -1.1465719119030816e+36   -1.7676804223131908e+36   -1.2970416453728368e+36   -1.7160105556274463e+35   -1.7120494577834105e+36   -7.3166196610184366e+35   -1.1185605318713744e+36   -1.7159647740047777e+36   -1.0203171753014489e+36   -3.3157928796529567e+35   -1.2509905165617939e+36   -1.7795213221024623e+36   -2.4418650395668498e+35   -5.0490029759603273e+35   -1.3305840062511491e+36   -7.0664264168870049e+35   -5.7122015760851610e+34   -3.1863678772894702e+35   -1.0607221627229611e+36   -8.8322317324465367e+35   -1.3014443892083765e+35   -5.7130009073861836e+35   -1.0879224174640598e+36   -1.9897144688831970e+36   -3.1661519561318606e+35   -6.3951097779908977e+35   -9.2343364903879575e+35   -1.2960138271229742e+36   -2.0954509164807767e+36   -7.7791713129587498e+35   -1.2134716399193742e+36   -4.0930827027512538e+35   -1.0117380192525972e+36   -9.8650834668554955e+35   -1.0641501393339798e+36   -1.2432533344734975e+36   -1.1840706635693327e+36   -2.1807640430755130e+36   -2.5796568145097857e+35   2.1305180772786724e+35   -2.0436267264125117e+36   -9.2580827483141269e+34   -8.3015575699793217e+35   -9.4251334199752759e+35   -6.4719909702948860e+35   -6.1029164355784454e+35   -2.1847838492939560e+35   -6.5787454578666440e+35   -5.1439678307488320e+35   -1.1407744370779144e+36   -1.9513638357057967e+36   -1.6030810813202349e+36   -8.2824291214163618e+35   -1.6494391632741599e+35   -7.1846529757656497e+35   -7.8374396688090253e+35   -5.1039443019909261e+35   -5.5189137547539742e+35   -8.4805050768567636e+35   -9.8013722067505985e+35   -1.7699681685843060e+36   -2.6928556864949651e+36   -5.0830771355342309e+35   -5.9763651363062315e+35   -2.5083165977722520e+36   -1.5423808738749358e+35   -1.4490986230753592e+36   -1.3992019814538099e+36   -4.1877898567878979e+35   -1.1127359837997798e+36   -5.7086153631451854e+35   -3.3919085611954431e+36   -1.0503134264856736e+36   -2.4485461508629255e+36   -5.5991449676113358e+35   -8.7436026852558518e+35   -1.1648089794218897e+36   -1.1059417530798386e+36   -3.2730166734711237e+35   -9.1155572536748087e+34   -5.3222203086301443e+35   -1.2377154268118347e+36   -2.6189195463384695e+36   -3.5323788153827429e+35   -1.4654164377780725e+36   -7.4977859173599365e+35   -6.9463535137594727e+35   -1.9449317510243839e+36   -2.0524176489253883e+36   -2.4838949471044041e+35   -5.9962279748704948e+36   -1.3296126295917616e+35   -1.5206025014020435e+36   -9.6553642736417933e+35   -3.2106362186951962e+35   -7.1221787621690190e+35   -8.9313108001052979e+35   -9.7752002876031317e+35   -1.2980617512059015e+36   -1.1371335000553999e+36   -7.5838099558922731e+35   -1.2435002581186232e+36   1.2663290137238953e+35   -2.1800312204234806e+36   -4.8238390704210033e+35   -2.0441278824859620e+36   -8.9646661551231414e+35   -1.1187555019734483e+36   -1.9581739641777856e+36   -5.3172688158260004e+35   -1.9377981727386447e+36   -9.3251586907161124e+35   -1.6363799102273566e+36   -9.0880892466635490e+35   -9.1940359931312592e+35   -2.4659706384655989e+35   -3.7682044127587481e+35   -1.1482364259186325e+36   -3.1915735800298298e+35   -8.3364617215968577e+35   -2.8784578585654032e+36   -9.9240455561532993e+35   -7.2855901243587128e+35   -1.2747841400807687e+36   -4.4478222778921998e+35   -5.8047577415570634e+35   -1.6454604965369966e+35   -4.4097693839886532e+35   -7.2872824503676881e+35   -2.6726538833883102e+36   -2.3635742848758524e+36   -1.3761584920888006e+36   -1.2148279228738578e+36   9.5002548314857316e+34   -7.3873033033346370e+35   -3.3530209079761518e+35   -1.2593031548667645e+36   -2.2571555573262159e+35   -1.0069395532873046e+36   -1.9550324363844749e+35   -1.9059839603573061e+36   -1.5567956541089618e+36   -1.2853880899269242e+36   -4.3355913419568069e+35   -5.7343404095195296e+35   -1.1168756842402053e+35   -1.2181254254852741e+36   -1.4569856649452776e+36   -1.0260665337542083e+36   -1.4254680835684683e+36   -7.9948406114474501e+35   -3.2117940384315660e+35   -2.1347224476393654e+36   -9.1798230352397545e+35   -1.3500962871331421e+36   1.4419384299566370e+35   -5.8028558499529268e+35   -1.2786405953003430e+36   -1.7977168712976639e+35   -2.3531358582329552e+36   -1.3261742525684846e+36   -1.8325131061433633e+36   -7.2185385059133502e+35   -5.6795930730614980e+35   -2.4915775639573471e+36   -4.5034511924760550e+35   -1.3558152771446669e+36   -2.2461147348766689e+36   -1.0356439418819567e+36   -1.4518125467663569e+36   -1.4550457420476513e+36   -1.9088068881181856e+35   -5.0517245948172350e+35   3.0536247419387793e+35   -7.6726426793587087e+35   2.0912049800731041e+34   -2.0984802747857750e+35   -5.5942664015813077e+35   -6.8558939310030863e+35   -1.7040460673755533e+36   -1.6794566657722643e+36   -1.1738281838740716e+36   -6.9449250905891187e+35   -4.3718622034753606e+35   -4.3580222485990999e+35   -2.3103852404822267e+35   -1.0712613237667935e+36   -1.5517172891689977e+36   -5.1392124385442142e+35   -1.9498183778681053e+36   -7.0184409732367773e+35   -2.0013825540414091e+36   -6.5031129466430431e+35   -3.5389342894055443e+35   1.5468646855144534e+35   -3.2926619436201613e+35   -3.6021264332880931e+35   -1.3095512871351763e+36   -9.1454052072645577e+35   -5.7437621898418455e+35   -4.1837742868300757e+35   -5.2798379207205463e+35   -7.0693783146875716e+35   2.3699263728836679e+35   -8.1398565745159473e+35   -4.7482643102298620e+35   -2.0377519261950052e+36   -7.0410009901700182e+35   -1.0433966198267587e+36   -8.6166020357314627e+35   -1.2944252306912069e+36   -4.5404481362062177e+35   -7.5741309209382925e+35   -1.6419499613400865e+36   -7.1523907951761017e+34   -1.0055103872247448e+36   -1.5658478996781501e+36   -1.8841388675455497e+36   -1.6080232366726414e+36   -8.0337522090965694e+34   -3.2480626685778748e+35   -1.6247555773876468e+35   -1.3267846208227055e+36   -7.5515517013506800e+35   -3.5247596435371310e+35   -9.7231911015320892e+35   -1.8602916528517002e+35   -1.4226841914958869e+36   -7.5132537685386422e+35   -4.0484322100574056e+35   -3.0692547228276798e+35   -1.0902879315993377e+36   -1.0698238424223073e+36   -8.5086474447282118e+35   9.1476200893098228e+34   -1.1968027262319426e+36   -1.3123322722749065e+36   1.2926366258110592e+34   -4.3457233265586825e+35   -5.5082539452189918e+35   -9.8693130596973642e+35   -9.7872544384259505e+35   -2.2181837786091920e+35   -1.1453032338423341e+36   -3.1929055677003495e+36   -1.6646686160707881e+36   -9.4106827520469094e+35   -1.0629899403175496e+36   -6.6405458489796414e+35   -3.4441847991686040e+35   -4.7150568762513372e+35   -2.0564764737043323e+36   -2.1472251746575854e+35   -7.6807416127957975e+35   -5.1392993210267918e+35   -6.4862386048049636e+35   -7.9130090802959319e+35   -1.5523843069331014e+36   -7.6075709122308331e+35   -9.6076715579483012e+35   -6.8805214306074727e+35   -8.8656461066306160e+35   -1.0869500320033172e+36   -6.9490067226088169e+35   -1.6604795434989440e+36   -1.7540403441682575e+36   -5.3064045633083209e+35   -9.1644977877739331e+35   -1.5362065017731845e+36   -6.5191566085297211e+35   -9.0135265082686015e+35   -9.1730239898011525e+35   -1.3727375632811053e+36   -1.2737491703430482e+36   9.2867381398959524e+34   -1.2711219885838577e+36   -8.6768728885765403e+35   -1.3287760202420121e+36   -1.5836428361072091e+36   -9.0465965187718090e+35   -1.4021149000668562e+36   -4.4605935024066995e+35   -3.7488471631039356e+35   -8.0037786089161921e+35   -1.1610809856445290e+36   -3.1400644882626385e+35   -6.0992986166200717e+35   -5.4532665918969789e+35   -5.1523664087106434e+35   -4.4290913047096981e+35   -1.2164857426036576e+36   -5.7979254301650094e+35   -3.6039452138902277e+35   -1.1574929192051206e+36   -5.8625467162040856e+35   -5.8356498111597450e+35   -6.5870102525257126e+35   5.9827137458713229e+35   -1.5193040204431738e+36   -1.7177547207741934e+36   -4.6764535952104396e+35   -7.2170729514308782e+35   -4.5137294379538169e+35   -2.7746105514567546e+35   -6.9494414482204990e+35   -4.6535999586190608e+35   -2.2990359995578397e+36   1.4260803214073728e+34   -9.4427654730304491e+35   -4.2448994526017763e+35   -1.0047423856994488e+36   -1.7754194332901991e+36   -2.1156914554162903e+36   -9.5381525947071243e+35   -2.0180356652413886e+36   -5.7320432975370357e+35   -1.5910791576233528e+36   -4.3724482990277176e+35   -8.5642029953322144e+35   -5.1145874225131055e+35   -7.0225407675476206e+35   -1.1184394919515551e+36   -5.7314487991612806e+35   -1.5783175395714658e+36   -7.6025534332617192e+35   -3.7147501252467762e+35   -2.9696527849397173e+35   -8.2886679028570644e+35   -2.5497116106417511e+35   -8.8880382234475542e+35   3.1569312708418159e+35   -1.0680960045720405e+36   -8.1132807820386885e+35   3.4672554606695491e+35   -1.1352418525446100e+36   -4.5591689918017350e+35   -7.3559604190424653e+35   -8.0832004108373153e+35   -1.3269439915871054e+36   -8.5030845959863031e+35   -6.3222320607116942e+35   2.5032463004257498e+35   -2.3807051547355854e+36   -1.1845285317587387e+36   -1.0601362101276903e+36   -1.0536844584953163e+36   -4.8718297516556890e+35   -1.9695580825602755e+35   -6.0330948851471898e+35   -9.4454085350726601e+35   -2.2490745515036921e+36   -9.9433203858851730e+35   -3.5092302079333675e+36   -9.4269495215858171e+35   -1.7141558566913036e+36   1.6290794626449017e+35   -9.0909296945738062e+35   -9.0467677021819364e+35   -1.7436394570622352e+35   -3.7862346001391009e+35   -1.2767509235685922e+36   -1.7513556989295411e+36   -2.4917843924059418e+35   -3.3717413871292069e+35   -5.6313894542226335e+35   -7.6717304439755784e+35   -1.3813610547811497e+36   -6.5923131242153884e+35   -2.1629091309525298e+36   -4.3894257457734390e+35   -5.2890637734000342e+35   -8.0923409503734392e+35   -2.2260984589993794e+35   2.1194245853423754e+35   -1.0368975248362632e+36   -8.0507687139953283e+35   -9.8543291986552939e+35   -5.5987618783273490e+35   -7.3283021270221621e+35   -6.8909552898443600e+34   -1.5470554972214818e+36   -1.0042108638066936e+35   -3.0062851535202894e+35   -6.4635213105408283e+35   3.7923253968864407e+33   -1.4870046048902726e+36   -1.3273185184300879e+36   -5.5662643435282426e+35   -1.6249322951831922e+36   -1.7773342666048329e+36   -1.1576585503929325e+36   -3.7556505753057183e+35   -9.5682961372662701e+35   -8.0101592493546211e+35   -1.0054726012404143e+36   -4.3739012586343835e+35   -1.7897429150521686e+36   -1.5711322756906530e+36   -1.2354818187582673e+36   -1.0615763627494476e+36   -6.2662597619893802e+34   -1.6317704534917545e+36   -9.0663071930465032e+35   -1.1137906616231000e+36   -9.5851418301230807e+35   -1.9046034526216436e+36   -5.4102919017281807e+35   -5.8529039879244945e+35   -1.8534447513218562e+35   1.6407295254363498e+35   -1.6285721159966500e+36   -1.0010079382449508e+36   -1.6819652612924671e+36   -3.2803239571089051e+36   -1.2953631485563937e+36   -8.1707603297500972e+35   -5.6164106230197124e+35   -2.6099697982748436e+35   -9.2270329283313668e+35   -1.7013496864702152e+36   -5.5987946381982075e+35   -1.1518356165675325e+36   -7.7661821398193880e+35   -9.0972132602095988e+35   -5.2285703377410872e+35   -1.9649169451657654e+36   -1.1295439397445940e+36   -1.1352296380024058e+36   -7.0465782525172368e+35   -1.0035030778082611e+36   -2.8881983243007077e+36   -1.1613467408490108e+36   -1.0427432128032508e+36   -7.3046893213855810e+35   -6.9193487671755565e+35   -7.5588513376333581e+35   -3.4864571792044054e+35   -5.4342452230528882e+35   -2.2527200256815546e+35   -3.8955511396552781e+35   -7.1163897044361144e+35   -1.5396701093959585e+36   1.2022286745933747e+35   1.2265826463813395e+36   -8.6324525114982135e+35   -1.6144602154629406e+35   -8.6131775485738556e+35   -6.8681938257708230e+35   -4.8988808432412729e+35   -1.2721481446192227e+36   -1.1850705655944643e+36   -2.0853216652108324e+36   -3.0090866508015432e+35   -6.7554730950402478e+35   -7.2247661891888894e+35   -2.7149691003402034e+34   1.8356871398977619e+35   -1.6036850763878543e+36   -1.4628797809681136e+35   -5.0824993288883388e+35   -1.5245646442900540e+36   -1.7953215821569147e+36   -1.4775185511418723e+36   -5.7384794007429841e+34   -2.6233327249436551e+36   -8.1602835635193136e+35   -2.0058682819347855e+36   -5.4575027771079748e+34   -2.5334908267118212e+35   -6.6117334948690736e+35   -6.5064397958683044e+35   -1.5078194900614500e+36   -8.7255686383836819e+35   -4.0962102092374128e+35   -5.1539172106302033e+35   -1.1895406310119005e+36   -2.6062170113330362e+35   -3.0917338101927650e+35   2.1115319700158831e+33   2.2619116044337936e+35   -1.2080199354111485e+35   -7.3267717585885012e+35   -1.2917719540127271e+36   -2.4855912714979634e+36   -5.1584638845445004e+35   -3.6069024339748887e+35   -3.2730536219666219e+35   -1.8680864747165797e+36   -1.1470380205045973e+36   6.4017549974135263e+35   -9.5177359267550741e+35   -3.9630191783676735e+35   -1.1073034388776755e+36   -1.2322814583502143e+36   -1.1149206971149137e+36   -1.1034466134363901e+36   -8.9962966108272321e+35   -1.4870283034359786e+36   -7.7308750439619273e+35   -9.4066533618462997e+35   1.9136575562781281e+35   -8.7823200814179818e+35   -7.7439136780977956e+35   -1.1359910069195438e+36   -1.7850152174665808e+36   -6.6993573850375562e+35   -5.6864200832010363e+35   -1.2496461891620980e+36   -6.4333128911679233e+35   -1.4994053996372070e+36   -8.4458747526645678e+35   -1.2741683523683922e+36   -7.4330904334772633e+33   -4.8338897224491540e+35   -6.6648572831268741e+35   -5.3486644986934755e+35   -4.9198888673494538e+35   -6.7198883489211549e+35   -8.1223167632913143e+35   -7.9350196937106619e+35   -1.2575764842822677e+36   -1.8489271321263085e+36   -6.3252003178362312e+34   -1.1480692389755169e+36   -5.0771302876794395e+35   -8.6778569701330939e+35   -1.1362071535315295e+36   -1.9100036681541600e+36   -5.1618932295521499e+35   -1.7423236979518649e+36   -5.9891707021869046e+35   -8.1823079752609081e+35   -2.4584225682003704e+35   6.2221451754908967e+32   -7.2907199779787845e+35   -8.1270226678832620e+35   -1.4836193687446152e+36   -1.5893059875364532e+35   -1.8939688821051409e+35   -3.5727798448254593e+35   -8.6498574104367936e+35   -1.3279550843730386e+36   -2.6541576506559187e+36   -2.2780119828135005e+35   -3.0335546540192496e+35   -9.3529619405720219e+35   -6.3941866994451758e+35   -1.6665856561050720e+36   -6.6547158461417644e+35   -1.1178932009790472e+36   -2.9269500301572187e+35   -2.0771259540030294e+36   -1.2010770199952954e+36   -9.4242347933368437e+35   -1.2995996719757525e+36   -1.5184708173523327e+36   -1.2423221882553030e+36   -4.9666559545812436e+35   -6.7976110754688612e+35   -6.0692792629149092e+35   -7.4039440294538399e+35   -8.3868022850637823e+35   -3.8630335779233802e+35   -6.5626410897540779e+35   -9.3013595638714569e+35   -9.9157054286634588e+35   -1.3201352230847437e+35   -1.0582506625556404e+36   -8.0540050407028604e+35   -1.5361358770177863e+36   -6.1967943153738099e+33   -3.9787034200948325e+35   -1.0296993965156055e+36   -2.0136027289527317e+35   -5.2410123574485018e+35   -1.1552914667528488e+35   -4.7804439355140680e+35   -5.9227863648171103e+35   -1.1617440964311415e+35   -2.8232666780777476e+35   -1.6228111554578013e+36   -8.0767486516056486e+35   -5.9084494548154423e+35   -7.2801680458791523e+35   -8.0455558204474423e+35   -1.0221094537829462e+36   -4.8423796654771254e+35   1.4141641982864959e+34   5.8574545188448164e+34   -5.3420451007344049e+35   -8.0973299809075206e+34   -4.3271671442531930e+35   3.9298534381137213e+34   -8.8583671916477757e+35   -7.7256253471070776e+35   -8.5429241749870751e+33   -5.0456317844861519e+35   -6.9784075684744835e+35   -3.8155851445586646e+35   -7.8353360832752665e+35   -1.3265766405596593e+36   -1.6148476781937807e+36   -5.2546227649764086e+35   -1.7219789932071523e+36   -9.9327908840273192e+35   -6.0109055187115153e+35   -1.5386183172785850e+36   -1.0625261839365392e+36   -1.2396446057027802e+35   -2.6049274140701848e+34   -5.6229298136846118e+35   -1.3180820832561368e+36   -7.9207455074350909e+35   -5.4231306576617303e+35   -7.3629452536487701e+34   -3.7025459059909000e+35   -8.6310205659839785e+35   -3.7047749734124681e+35   -8.4262035985094879e+34   2.7221160230824195e+35   -4.8941292774401623e+35   -7.7678543271195250e+35   -1.9721167116117471e+35   -1.4416183849736601e+35   -1.1596653164356544e+36   7.3164478203625506e+34   -8.1907545721108704e+35   -9.2253667476957605e+34   -9.1971420958593847e+35   -7.2570819202932437e+35   -6.2671129157876781e+35   -6.5671893030545905e+35   -1.3102276036202135e+35   -6.6906667166390030e+35   -2.0945334595252930e+35   5.5465797893731458e+33   9.7852958887268559e+34   2.0521864940767825e+35   -1.0513403628441934e+36   -5.5496721676962455e+35   -7.0612298969348790e+35   -1.8898706761290722e+35   4.0647277753006455e+35   -5.1107176324608986e+35   -1.8231360828366000e+36   -6.8001052361177527e+35   -8.0452328898404654e+35   -7.4834853070587653e+35   3.4338998084422127e+34   -1.5552060766201634e+35   2.3596546643737556e+35   -5.8987538638283835e+35   -5.6826140154511376e+35   -1.1720468604828694e+36   -1.2199408533663322e+36   -1.0286747503136717e+36   -1.4259930277255009e+36   -8.8714711217011794e+35   -9.9467864081252970e+35   -1.2036361440993073e+36   -1.6853338546558057e+36   -1.1202612709399162e+36   -5.6798723984127093e+35   -1.0393046348628207e+36   -1.3859435774023476e+36   -2.8609266329661589e+35   -8.7186004862867993e+35   -6.6732447970633415e+35   -9.5896327207626767e+35   -4.8621891189907766e+35   -1.8103971762866987e+34   -1.0755951380733647e+36   -2.2043772110299095e+36   -8.2777890216663664e+35   -2.6771216614494637e+35   -9.1180009440976480e+35   -1.3354028960415861e+33   -3.1286019518662140e+35   -1.6435075443317701e+35   1.5005754528978414e+35   -2.8746048756784732e+35   -1.1722299811290874e+35   -8.9337391555810870e+35   -1.0532962181159553e+36   -1.1550072694657544e+35   -6.0243180900696056e+35   -1.0976800454241073e+36   3.0205274021968015e+35   8.2163069470849289e+35   -1.1460628045220190e+36   7.1406197542144447e+35   -1.0016801224873088e+36   -1.2436202669859199e+36   -2.5946328516988898e+35   8.8942287863353003e+34   -1.4765370489167278e+36   -5.1685155337300531e+35   2.2902944531015807e+34   -1.0358942752632149e+36   -6.9566041386059900e+35   -1.1129967264119323e+35   -1.4207937665142400e+36   -7.5154150953860814e+35   -1.6366230647601852e+35   -4.5586089121001790e+35   -3.0950045367380677e+35   -6.7479194031072596e+35   -7.2961990354976671e+35   -4.7542168603321450e+35   -1.2747237893506270e+36   -2.6183333400330432e+35   -8.1873680575864724e+34   -1.096588466069318