<?xml version="1.0"?>
<VTKFile type="UnstructuredGrid"  version="0.1"  >
<UnstructuredGrid>
<Piece  NumberOfPoints="2534" NumberOfCells="4892">
<Points>
<DataArray  type="Float64"  NumberOfComponents="3"  format="ascii">0 3 0  0 -3 0  6 -3 0  6 3 0  3 -3 0  6 0 0  3 3 0  0 0 0  3 0 0  0 -1.5 0  1.5 -3 0  1.5 3 0  0 1.5 0  6 -1.5 0  4.5 -3 0  6 1.5 0  4.5 3 0  4.25 -1.25 0  1.75 1.25 0  2.25 -1.5 0  4.5 0.75 0  1.541666666666667 -0.2083333333333333 0  3.219827586206896 1.521551724137931 0  1.125 -1.875 0  4.875 1.875 0  0.8702651515151515 0.631628787878788 0  2.25 2.214285714285714 0  3.316176470588236 -1.904411764705882 0  5.214285714285714 -0.75 0  5.03125 -2.03125 0  0.96875 2.03125 0  4.041666666666667 -0.2083333333333333 0  0.8205128205128206 -0.9134615384615387 0  3.942582294752138 2.189194098250713 0  3.061487638533674 -0.968243819266837 0  2.192708333333333 0.4427083333333334 0  4.157850026972511 -2.182329047049442 0  2.331456616463011 -0.5285296485744057 0  3.654761904761905 0.5654761904761902 0  5.25 1.125 0  2.563673341677096 -2.280663329161452 0  5.126674107142857 0.1283482142857142 0  0.75 -3 0  0 -2.25 0  6 2.25 0  5.25 3 0  0.7680051888903191 -0.1384245958639337 0  1.617229471026718 -1.006949429867069 0  4.218940341429579 1.468686552856807 0  3.75 -3 0  2.25 -3 0  0.75 3 0  5.25 -3 0  6 -0.75 0  0 -0.75 0  0 0.75 0  2.25 3 0  6 -2.25 0  0 2.25 0  3.75 3 0  6 0.75 0  1.787573018358365 -2.279142327213878 0  3.195025188237337 2.273430909158844 0  2.528159645294386 1.151699106559287 0  1.041598427383826 1.322848427383826 0  1.520951704545454 0.4634232954545453 0  1.580357142857143 2.325892857142857 0  4.919642857142857 -1.361607142857143 0  4.54981623521892 -0.6483700862895494 0  2.99317863826574 0.6697091957925523 0  3.450169349029507 -0.4574865881858001 0  3.605016126014028 -1.323102984840902 0  2.745144658907412 1.882241931337371 0  0.4898065586600511 1.092777516238393 0  0.5 -1.875 0  1.217028489597945 -2.469323836800685 0  1.659912685567181 -1.604738056701542 0  5.4375 1.6875 0  5.34375 2.34375 0  4.52741779500503 2.384139265001677 0  3.375 -2.514804579549941 0  0.5446428571428571 -2.455357142857143 0  2.766554087216865 -1.745795909102064 0  4.525516559010988 0.1490283123570637 0  3.87554132162248 -0.8280516069565407 0  4.53622906132958 -1.76963146596888 0  0.4243951612903226 1.875 0  0.554851858345021 2.446861709948876 0  5.575604838709677 -1.875 0  5.445148141654979 -2.446861709948876 0  4.875 -2.575604838709677 0  1.440573466105381 1.721823466105381 0  2.193519495405082 1.631799415080963 0  5.472630128027442 -1.330813078900983 0  4.750126894286386 1.343813447143193 0  5.607142857142857 -0.375 0  2.625 2.607142857142857 0  0.3921763197810531 0.375 0  5.60901753622775 0.3750000000000001 0  1.125 2.613454943235572 0  3.701856738980915 1.163867513386733 0  3.736112850688509 1.696746876851408 0  3.519183195491339 0.06065128742606851 0  3.973620778217027 -1.693401606145563 0  0.8125 -1.444978632478633 0  1.256657745408029 -0.6381828923025001 0  0 -1.125 0  5.019997778514942 0.6475044429701156 0  4.125 3 0  1.285569332703024 0.8955310332120207 0  0 -0.375 0  0.4638922275641027 -0.5625 0  2.056635259780241 -0.07226025978024064 0  2.130475508371123 -1.000827820434028 0  2.677484372338113 -1.267299126394495 0  2.848680878891876 -0.4956836878192376 0  4.937901885089369 -0.3340245904575954 0  4.393563081308854 1.919544166973803 0  4.053859126323572 0.2813938488760716 0  1.181051704329518 0.1167440895674965 0  1.971354166666667 2.607142857142857 0  4.875 3 0  2.519350561152006 0.08093582719875507 0  3.139443301924015 -1.442524927271905 0  6 2.625 0  1.849169256239503 1.945480934753207 0  1.867196483071171 0.7892354369530077 0  1.192506522009051 -1.184888428863342 0  3.375 3 0  3.603234392481833 2.536866305538572 0  3.846752908916648 -2.537707634073423 0  2.014339897513945 -1.886932065281681 0  4.038392037966526 0.8363324773944992 0  4.421242701722609 -2.552534687860327 0  3.715389848650903 -2.108856956172843 0  2.985668138820625 1.127780908772207 0  0.4500794934449803 -1.173696061598557 0  3.366760888116476 0.8891914618875614 0  1.869163043700093 -0.6107175804171328 0  2.175114838273305 -2.53928723780967 0  3.014417665538299 -2.241523065744933 0  2.625 -3 0  2.819968145332426 -2.617202329573456 0  5.625 1.3125 0  5.563263538826679 0.814027077653358 0  5.625 3 0  2.550041671270923 0.7074928970804664 0  4.014583091741168 2.59891853892166 0  0.6440729668673318 1.499523832583132 0  5.219449799568244 -1.660557808485412 0  3.474012636702472 -0.9300738420779746 0  0.8125 -2.142857142857143 0  1.875 -3 0  4.945010515846405 2.554471797033147 0  2.611388969012422 -0.8478354915063726 0  3.223746055611014 0.3371683159691745 0  4.843939757110898 -0.9483610977948225 0  4.66556954816842 -2.220888354477256 0  4.125 -3 0  4.448108395110625 -0.2524000502731018 0  5.63671875 2.05078125 0  2.822484133964224 1.491327727709286 0  3.378213092764193 1.903125093887009 0  5.607142857142858 -0.9231200445788541 0  2.12639693023183 1.100450516019641 0  5.625 -3 0  0.375 3 0  0 2.625 0  6 -2.625 0  0.3931307155906299 -0.01856779822591927 0  0.8549199714190221 -0.5218333744252657 0  0.7651723094668359 0.253768144801553 0  1.421989550604507 -2.133299471886336 0  1.582611957351803 -2.615166692128227 0  4.420331038793115 1.133144382396504 0  0.375 -3 0  0 -2.625 0  5.078156723571596 1.54697017071479 0  1.877250715260938 -1.288801575378032 0  2.409169073010687 -1.916147168931784 0  1.146151077069952 -0.268000681695328 0  1.726784828652036 0.1335728643263411 0  2.745628549924675 0.3838821021397905 0  3.011490900297165 2.613625569196862 0  5.62463365164608 -4.137655439684362e-05 0  1.875 3 0  1.125 3 0  6 0.375 0  2.625 3 0  6 -1.125 0  6 -0.375 0  4.875 -3 0  6 -1.875 0  3.375 -3 0  1.125 -3 0  0 -1.875 0  0 0.375 0  0 1.125 0  0 1.875 0  6 1.125 0  6 1.875 0  4.813017731148975 0.9677363687196439 0  2.807371623148303 2.264962208227767 0  0.3692953377255688 0.7436406761680247 0  5.615625 2.615625 0  0.9395725521479794 0.9812935874921043 0  1.390920759130215 1.238984550166515 0  0.9588795022085095 1.672288500195331 0  0.87712392565124 -2.641031728267331 0  0.3665732993114588 -1.532068934251388 0  1.841944504733106 1.591700334213738 0  4.832970185136452 0.3385359233091246 0  4.169083540479082 -0.5746148619765254 0  5.281697083409333 -0.2046640461936881 0  4.072845380968044 1.784516523483641 0  1.293029195762321 -1.543079049035419 0  4.878733886054284 -1.720697370582964 0  3.609167475697567 -1.687579152754035 0  4.836981942878573 2.222259978217028 0  4.204938267037067 -0.9128589669335569 0  5.183079748175263 -1.111742407358677 0  1.469404041858679 2.654509729682302 0  1.22880920402559 2.273525645756405 0  4.566761045622856 -1.414165869120005 0  4.531680518427715 1.606803989975667 0  1.918929241273175 2.27471131819245 0  3.590183783343969 2.184680610175416 0  1.85683899811842 0.4533569963423589 0  1.173935704088662 0.4636872214645547 0  2.116602160898525 -2.207718541460878 0  4.51821874648995 -1.042568353750147 0  2.721551512787618 -0.1859357475290837 0  5.294921875 2.001953125 0  5.288671874999999 2.670703125 0  2.199940744527116 0.7756512213396931 0  4.090519467638897 1.163401080812838 0  2.298177083333333 2.670581371753247 0  2.484362362207526 -2.687319997637033 0  3.300530569898859 1.207053005217563 0  3.936078051808127 -1.362164062673065 0  5.341218841330105 0.5689885832563615 0  4.226314635599414 0.5638853401248238 0  2.524510956818563 1.635483567726497 0  0.3219546452225031 1.389066019009203 0  3.139061555368706 -0.3133905221155423 0  3.145569907612562 -0.6461828528638952 0  3.701427442033566 -0.2272880199383185 0  1.686782510365738 -1.934662341426927 0  2.427696494631844 1.944064773844184 0  3.901817839425732 1.422433381251312 0  2.356489883772755 -0.2025512972825912 0  4.820757576351118 -0.01647699434507374 0  3.064415631228375 1.809719380809516 0  4.643002705009462 2.69782572459795 0  4.31624250429496 2.728112685900672 0  1.520100694408069 -1.314302747998057 0  3.754559308601717 -0.5375020107416889 0  0.25 -2.0625 0  0.8125 -1.826636904761905 0  4.861738621091127 -0.6367294570749906 0  1.545149590740081 2.015832101819233 0  3.857113324620078 0.04127675193819436 0  0.3162874907704933 -0.864918315983958 0  4.21293081604216 2.352874368135467 0  3.123697687162562 -2.708090473740421 0  3.415275466010259 -2.202892416689829 0  3.601103065320932 -2.727566580522146 0  1.558629964945672 -0.5289921609136927 0  3.324859026263307 -1.198136798699183 0  2.424350759683917 -1.092246517929194 0  2.789248065239812 0.8954629970670158 0  0.8882026075771248 2.364936378889839 0  0.8066140242673685 2.679750706449505 0  4.504454978490482 0.4491616076730165 0  4.26881784709759 -0.009649566552704852 0  1.313479173834523 -2.758675889510418 0  1.120577805361368 -2.179971784090952 0  3.734048623985226 0.8602850349907256 0  3.527828882622877 1.432983527791925 0  1.959527908877504 -1.578124930685265 0  0.7602573574724077 1.220872343399509 0  0.6691217533356228 0.8531987603309893 0  1.877213035764122 -2.564340152892596 0  3.304349402914068 2.552016594979913 0  4.285565286275464 -1.569057178671076 0  4.227521511146333 -1.876903861267543 0  5.34375 1.40625 0  5.71875 1.59375 0  1.56245959534423 0.766197796710638 0  0.2458241530773257 2.4375 0  0.2794123857609179 2.138568368155198 0  5.754175846922674 -2.4375 0  5.720587614239082 -2.138568368155198 0  0.6472458227887359 2.124973059628837 0  5.124241021325378 -2.352544055105642 0  5.189172233440652 -2.675873509996353 0  5.364643151640443 -2.12768524739804 0  2.298896485720138 1.348573610321417 0  0.6008689899200503 -2.745193425346304 0  0.307092513690391 -2.651812055231556 0  0.2683745826107009 -2.363146293324415 0  0.5223214285714285 -2.165178571428571 0  0.5169611136983336 2.740349995819724 0  5.607469108596883 -2.699891746740618 0  2.138439274270545 1.947386893596098 0  1.25507379660067 1.953406658386351 0  4.135759889512124 -2.476847355718572 0  2.548249345531056 -1.538893887888457 0  2.771010284190282 -2.05339728351
[...]
<CellData  Scalars="f_26-2"> 
<DataArray  type="Float64"  Name="f_26-2"  format="ascii">2.9133015948277740e+16   -1.0462495126146573e+17   1.3504892371168746e+17   -2.8326166840725520e+16   -5.0323392057472808e+16   1.0286466625311514e+16   3.9164408549762688e+16   8.7846767377395630e+15   -2.0848386375564294e+17   1.1513236578832210e+16   -2.1623754555985900e+16   9.7864487583959056e+16   -1.4707635851140061e+17   1.1362976432398160e+17   1.8497677320915450e+17   -6.8966974249197192e+16   -8.1224676787185904e+16   6.4849372076876056e+16   -1.8773616878689312e+16   1.1368620544963618e+17   8.4684898062066240e+16   -5.4344775939977208e+16   -1.1879406806571579e+17   -1.4050658566275099e+17   2.6242906953681344e+16   -7.7329054101514880e+16   -3.4504325339106868e+16   7.3875129422484880e+16   5.1194797911393531e+14   -1.0243357878771006e+17   -1.0130038656566184e+17   -2.2276906969255213e+17   -8.3713608385284752e+16   -1.4296193952450805e+17   -8.6597780509875600e+16   6.0213241140984992e+16   6.5599015323894020e+15   -2.9339221009328428e+16   -1.1363204722150714e+17   3.6177729336042664e+16   7.4775505554705190e+15   8.3461245656644320e+16   1.4130346095420488e+17   1.7559471999451939e+17   5.2180522754098136e+16   1.0219897053586570e+17   1.1643328379787024e+17   -1.4348891343079629e+17   1.2188920787917878e+17   1.2581197948270786e+17   1.1500018727599042e+17   -1.8454895560216364e+16   -6.9390667311183152e+16   1.1091584559101253e+17   1.3852726164051234e+16   1.0126894146277429e+17   3.1237232243869508e+16   1.3981112308882029e+17   -1.6138821635157088e+17   -1.4663772844754022e+16   9.3060073196156128e+16   -2.3563895500698650e+17   3.1755210225710792e+16   1.3711344244523732e+16   -6.8620713854666896e+16   -9.1505381815408740e+15   -2.7095232643992150e+17   -1.1844807052844024e+17   1.1380319389461757e+17   -7.6993229779975872e+16   8.0247834200206544e+16   6.1457971455185425e+14   -1.1988988768310806e+17   -6.2976042344194040e+16   2.4314264933884772e+16   -5.5390952091603360e+16   4.2178098687095768e+16   6.9638891150332960e+16   -2.8325144318473372e+16   -1.8607673922740390e+17   -2.5531080916587280e+16   -1.4228274714356986e+16   1.4493192495354380e+16   6.8974866465688256e+16   -9.8244927545545680e+16   2.1219104333329600e+17   -3.9464410746634392e+16   -5.9615204581271144e+16   8.6240910486999280e+16   1.0913250100624790e+17   -1.3575465437690845e+17   -1.4041014901691974e+16   -6.6395185839875568e+16   -7.4514153570787470e+15   -3.5307362627429516e+16   -9.5768740937334384e+16   -9.3106307471235200e+16   1.2379419251511837e+17   5.9538002283772880e+16   -1.2788183588165214e+16   1.3632644125810478e+17   7.1122260128908872e+16   -5.2481862350456900e+15   -3.5264499988321860e+15   -5.9179733641221944e+16   -2.2038441422212307e+17   -3.0077798967372596e+16   -3.5122716676142368e+16   -5.3759877142314544e+16   4.2505948409876344e+16   2.4480133655463340e+16   6.8465983158224664e+16   -5.1173136034355880e+16   2.8371977339294200e+16   -3.2112041090802618e+17   -1.0761993277924662e+17   8.5707069361476360e+15   1.0575697400831776e+16   -2.8746396824174976e+16   -1.1655522145666318e+17   7.5926885382329632e+16   -8.5517012470864450e+15   8.8964723051696224e+16   -2.4009180217757640e+16   -4.2045207338439312e+16   -1.0146714984961656e+17   1.0070071213057066e+17   -1.5831178033873186e+16   -2.7429629280640205e+17   -1.0706705571441691e+17   -6.8126554485716160e+16   -1.8072751057172504e+16   -1.5445805166921997e+17   -1.1211997705032866e+17   -7.8023591936337984e+16   -1.2539223725770484e+16   1.5237779611632185e+15   9.1668423400468138e+14   -3.8718166589804944e+16   -9.4408694926200560e+15   -2.1023921100255780e+16   6.2104922386758376e+16   1.5995008652787782e+17   3.7198488694693056e+16   -1.2060555291663341e+17   -1.1340972118285892e+16   6.2057940620473448e+16   -1.0985507209871277e+17   -4.7054556701136112e+16   5.1260362914364232e+16   -4.7549006277673312e+16   -1.9725256782648272e+16   2.2520527594577832e+16   3.0337285969468504e+16   5.0197441333145992e+16   1.1621762804222292e+16   7.6454528895927600e+16   -1.8437932532891640e+16   6.1194194006913544e+16   6.6467199071158632e+16   -3.5376792823486432e+16   1.6093025798660390e+17   1.6013701199283421e+17   -1.0326326107627083e+17   7.2707383228856272e+16   4.3273328270205456e+16   2.6579085948260936e+16   -8.1628633907109200e+16   -9.8176360723282448e+16   3.2054290120954668e+16   1.5002392519732890e+16   -3.4205052479681092e+16   -1.1139243034806136e+17   2.2872770857720048e+16   -7.2163644797509696e+16   -5.4983053508141350e+15   -2.4769399608190893e+17   -8.4794520658324592e+16   -6.6206287369516152e+16   -7.2196914534907200e+14   6.7977258378483032e+16   -7.5584343372153392e+16   1.3543424110092826e+16   -4.8881337216372392e+16   -2.9479409626096884e+16   -3.0918332386465964e+16   -9.4392874337739520e+16   -1.2673217378928190e+16   -9.3878500279622640e+16   1.5571430035534398e+16   -2.1518874952887260e+16   -1.6585830582503136e+17   -1.8219304174134941e+17   1.8579073434528509e+17   6.5694813675481968e+16   1.1359557909511474e+17   -2.3472396556505712e+16   7.1474775812567680e+16   -7.2471610687868688e+16   -1.5074498842483298e+16   -8.6612011857504336e+16   -2.8278055368988572e+16   2.2533854980526420e+16   5.2011576478308688e+16   3.4714227293602412e+16   2.3239420128249028e+16   -1.9237341022435430e+17   8.7272075469161930e+15   -1.8051443858186842e+17   -8.7187810656292656e+16   9.1395001073752384e+16   1.2267509598745565e+17   5.5543155936848840e+15   -6.8729495550716032e+16   1.1218117118597456e+17   3.3425015189104456e+16   5.2707000362948184e+16   3.4970217542748076e+16   1.4591481113596547e+17   -6.5791889909772088e+16   -3.1552415528445764e+16   -1.8647279816678528e+17   -1.3887290623417480e+17   2.6551634356305460e+16   4.4424518644473140e+15   2.8355860493197256e+16   5.9301163559710584e+16   6.6998430910555624e+16   -7.3901402516152510e+15   9.4890765639661424e+16   1.0855509969301283e+17   -1.3187417153412296e+17   -1.8585559867669446e+17   -6.9705124168387528e+16   -6.3744353514526432e+16   -5.7727746346372496e+16   8.9233499668328288e+16   3.8822703842736072e+16   -5.9106057327919808e+16   -3.2187376046815612e+16   -5.8066952618654296e+16   -1.5218070930178866e+16   3.1880386841728644e+16   3.2124458062209444e+16   -8.3668793873924096e+16   -4.8838029964892106e+14   -1.4190625803948187e+17   2.7357792281626040e+16   -3.8037767476499056e+16   3.9730432207218728e+16   -6.7783289570549760e+16   -1.5102209381216314e+17   3.4299395706857935e+15   8.4636700993974400e+16   -1.1816525612749070e+17   -1.0297582809300213e+17   1.4389818768462698e+16   -2.4135871038063904e+17   -6.0083530834576968e+16   -5.1279866186176656e+16   1.1503091067329947e+17   5.7866400088626608e+16   9.8358827642529680e+16   5.6575986190637776e+16   1.7427154350966054e+17   1.4169618239668024e+17   1.5101130617114573e+17   -8.3473836781807344e+16   -2.2103131424352566e+17   5.2334660263104528e+16   1.6047726017516682e+17   -1.1090928850482982e+17   -1.0596343504131392e+17   -4.6666233723316848e+16   -3.0064729273635816e+16   -7.7314182168293824e+16   -6.6087845258321648e+16   8.5705038714118544e+16   3.1055176029426640e+16   2.0808940860426908e+16   3.2569655713093528e+16   -2.7485735533182544e+16   2.5314968294549664e+16   -8.5510762666998112e+16   -1.5385924473800659e+17   -3.6474052640655800e+16   -3.4073845459710328e+16   -9.0350341963827808e+16   2.7878484098940672e+16   -9.0569489527485136e+16   4.6963441120699072e+16   1.9651139718359232e+17   3.6602667528472616e+16   5.5537832557062720e+16   -1.9681877157755709e+17   -1.4762440838254538e+16   8.3749366928415216e+16   5.3917600122174752e+16   4.4753598030457208e+16   9.7340283347680176e+16   -3.4820954850033798e+17   1.9856653288336806e+17   -1.0742185241279070e+17   -2.1076884380416356e+16   -7.1809574938261496e+16   -1.1068759764973613e+17   -7.7500027632316912e+16   -1.0837302082199142e+16   -4.6124377804524784e+16   -5.8296587862988264e+16   5.3205555411266488e+16   -7.3255249712965648e+16   3.2386470409762356e+16   5.6025656542087664e+16   1.1112005850587029e+17   1.1775766959696842e+17   -4.3825199387371072e+16   -2.0789430064751076e+16   1.8062359183226368e+16   4.8197275751570488e+14   -3.3949919839284372e+16   -8.2490221790622208e+16   1.3283012977168515e+17   -1.4820762378098406e+16   -1.4879294844924218e+17   4.3974622601790568e+16   -1.4459279801644339e+17   -7.4530279132883424e+16   -1.8797662686161629e+17   7.7207599161926025e+14   3.6894352860619328e+16   8.9249321324877152e+16   1.8228049478528528e+17   -2.4929825646050416e+16   2.8671658614268668e+16   2.4859024703928220e+16   -1.4906090831455014e+17   7.5505143669923120e+16   -4.6821046995798240e+15   1.5488474578359496e+16   4.7837160173270368e+16   1.1439669057864091e+17   6.4980128576559664e+16   -2.8289461889044804e+16   1.0449708371986459e+17   -1.2378898132864600e+17   -1.2671050551529058e+17   -1.4010743212902467e+17   -3.7262002240823336e+16   -2.6930727738277984e+16   1.3086818868799576e+16   -2.6685365802438756e+16   7.7863657627586080e+15   -6.4302003735790712e+16   -5.5223069114794640e+16   7.5379920899645104e+16   7.4701935846690560e+16   -4.5563309101142680e+15   2.2093531280671917e+17   6.3710116104986040e+16   9.5589184681819248e+16   -5.5378439824709220e+15   4.9800402275707856e+16   5.5278550864040224e+16   -3.0925115462638768e+16   -6.2302325401722296e+16   -3.5194463048384512e+16   4.1182252206092265e+15   1.7811208963661942e+16   -6.1144468699561225e+14   -9.4334111858861328e+16   1.5931360520981309e+17   1.2480570598628116e+16   4.2887984233528031e+14   7.1231126274508200e+16   -1.3507204645026798e+17   -2.0142267597717027e+17   -2.7264129737658020e+16   -2.5882373694355024e+16   4.7131192975424860e+15   1.2692991584476718e+17   2.0783669969661786e+17   1.0390822948043634e+17   8.6322804204153456e+16   2.1502161447523448e+16   -9.7944653916546336e+16   2.9090815763479556e+16   -2.8621796366928756e+16   4.1858144435274328e+16   -5.3355646949060176e+16   1.4426783615823558e+16   -4.5067568309359864e+16   1.0455062797299256e+17   -7.9709027965202880e+16   -2.1202648884340080e+16   -5.9310690617744376e+16   -1.1798490413414763e+17   -8.8705127240510656e+16   5.9711809683424424e+16   8.3889935539751264e+16   1.2994677711110819e+17   5.2709582489402592e+16   -3.5389585828804528e+16   -6.0084658257806896e+16   7.2809248892799552e+16   -3.7941172549854816e+16   4.4699423498117632e+16   -1.5898811839102934e+17   -1.0749584401117614e+17   -1.5504093901887614e+16   4.8859975252307824e+16   -9.3666489734620896e+16   -2.2759996796475325e+17   7.0116434007965720e+16   2.3441274716611020e+16   6.0367349065519056e+16   -4.3393861870519536e+16   -6.7746135794322280e+16   1.0254085502431904e+16   -6.2391929007418872e+16   6.7069639316984824e+16   -9.1940214201045776e+16   -2.5702125896659460e+16   -8.0215194248843120e+16   8.5357125682225104e+16   1.0798297563775731e+17   1.2535958587358434e+17   -1.7110364487128410e+16   -7.6343757161845104e+16   -1.4691560232554704e+17   -6.9456800044090680e+16   -8.8135851157458752e+16   -3.2014627885480800e+16   -8.1469875539521968e+16   -2.0177515996922925e+17   -2.4801654580245188e+16   -4.6542399990014832e+16   -2.7393985138947866e+17   -2.0604519300079306e+17   -6.1748078748410520e+16   -1.4760599537236048e+17   -1.7938660498121910e+17   -5.1093969877836056e+16   0.0000000000000000e+00   -1.6162405413857632e+17   1.4903690619437395e+17   1.5811731366411978e+16   3.5031760832811768e+16   -1.8782595887183907e+17   1.6432508416944653e+17   -3.6883494354459352e+16   1.9135773811029120e+16   1.0105210983823272e+16   -1.1912039552671280e+17   1.2694456398562306e+16   1.1398198749269720e+16   -3.6527964045956440e+16   -4.0953229200302656e+16   -1.0172264654591963e+17   1.0074662370341138e+17   5.6476842168590770e+15   -2.4279731637342592e+16   1.5069623977079754e+17   5.9730411862636480e+16   -3.8209978663577504e+16   4.5940220150646360e+16   7.2075845096363728e+16   2.7186420661958944e+16   -4.2701461018572832e+16   -1.2495910588380556e+16   -5.9546243524655200e+16   -2.4507491747163920e+16   -4.5325386280127910e+15   -6.4357158830155664e+16   -1.4512917387322278e+16   -1.0938245416297475e+17   -1.4886597146280253e+17   -1.1504561342434803e+17   -3.1738143049545152e+16   -8.5537313116757520e+16   -1.3325046808105027e+17   4.0503112211271872e+16   4.9280638323166736e+16   4.2241666096087030e+15   1.6160187495333214e+16   -5.3013801327904120e+16   -5.1995246043910824e+16   3.3330462574142804e+16   -1.3901320982932749e+17   -8.4851051403164240e+16   -6.9700362370423088e+16   -4.0096251725428312e+16   -1.2287510667667954e+17   -7.9532179982625168e+16   -3.8675347092089936e+16   -6.8542435501405432e+16   -7.9417815550233216e+16   -5.6103546081641392e+16   -1.2775950905116250e+17   -1.8015178788274349e+17   -1.4355833990100315e+17   -2.1381954580217324e+16   -5.3475390255998608e+16   1.6001599426170844e+16   3.1196135955306944e+16   -2.8283558940331914e+17   -1.0759728308325621e+17   -1.5043936820585357e+17   -1.9172639925706090e+17   1.5940025641286394e+16   5.0567212191824728e+16   -2.3111145098601740e+16   -5.5536525814179776e+16   -1.4715681237414248e+16   9.4571009736390096e+16   -1.1075890024864406e+17   2.1993251118670704e+16   3.1943762210447400e+16   8.2308782591561184e+16   6.9855762186959400e+15   -1.2213097817530416e+17   -4.3279934578673896e+16   -7.6344198810986656e+16   -1.0835288836060518e+17   -9.6382123188358768e+16   -8.8660550071862720e+16   8.0832037575629440e+16   -1.6075437921301734e+17   -5.2387117541521180e+15   1.0173437555291253e+17   1.6356903403354813e+17   1.2776615488028880e+17   1.0222112513995294e+16   4.6581790204809896e+16   -1.3571325559166402e+16   -1.2762185805427450e+17   -1.1299837897330123e+17   -1.2582362250108610e+17   -3.0898025179859962e+17   -9.8635288580359888e+16   1.6698334478419358e+16   3.1091879209817267e+17   -5.2790899615149712e+16   -2.7264706249467135e+15   8.6855915799002920e+15   -9.5948996709950208e+16   -1.5463886751959968e+17   -3.7673060511935923e+17   -9.7506875668084416e+16   -2.7780308153219356e+16   6.6564519784053688e+16   -7.4656257166084944e+16   -2.8278438726314131e+17   -1.9647286378010125e+17   7.3417322410564496e+16   4.4369743678108952e+16   -3.5853149102487104e+16   -4.1143040578198208e+16   -1.1101360856938323e+17   -1.4057880339592682e+17   9.2376189512798368e+16   1.0224857693693045e+17   1.3305943111092160e+17   1.6211412442130038e+17   -5.8918952482593000e+16   -1.2389446766633414e+17   -6.4352871028407152e+16   7.8624686368717104e+16   3.2274185463173460e+16   -8.6255579762490064e+16   -1.8531629476125331e+17   -8.0007060166048976e+16   1.5158492672390630e+17   1.9892308183872637e+17   1.3469479929757675e+17   9.6396850578066112e+16   -2.8063409700147884e+16   -1.5708980901288616e+16   -8.0509058696430608e+16   -9.7461111336726400e+16   -1.5842206491281811e+17   -1.4554369823238848e+17   -1.5651564746529514e+17   -1.6799034437262704e+17   1.7926494923468259e+17   9.7465906332881856e+16   -7.9642561736655440e+16   -3.0218048733877192e+16   7.2620681487745008e+16   1.9873604903077901e+17   -7.0312663323921376e+16   6.0682940305033712e+16   2.7538879208781104e+16   1.5055181860260352e+17   -1.0651254487566717e+17   -4.0556709704949875e+15   1.6525278944264368e+16   -1.4962927213746026e+17   -7.7129953710736288e+16   -1.0258929933823500e+15   7.2450733196219220e+15   5.1066882849425880e+16   1.1894855750336168e+16   -2.8601856073183272e+16   1.1066883255592744e+17   1.8377278556519068e+16   5.6743229890559256e+16   1.3184295354489979e+17   4.1417456945166712e+16   4.4686399226271304e+16   -1.3518379133820746e+17   -5.7689012260302088e+16   -1.0847554561259722e+17   -2.9410599083492154e+17   -1.5843357912885244e+16   7.1719792804602510e+15   -1.1323285213712810e+17   -3.9064169101740432e+16   8.2681981725594544e+16   1.6704240867772870e+17   -1.6798119303638179e+17   -1.1727647034223562e+17   2.8081467442673964e+16   -1.5922461647411638e+17   8.8764297345062272e+16   -3.7869726349514464e+16   1.5691999984922800e+17   2.7990914379688810e+17   8.5140448683339712e+16   -1.4784467711536256e+16   -5.7521193694206144e+16   -1.1919648979418162e+17   3.6464147131836568e+16   1.7473751228652813e+17   1.3892066250863176e+17   -3.4397293849053556e+16   -7.9661101995071620e+15   9.2388092083687152e+16   6.5619003202340550e+15   2.5085971739543274e+17   -2.0998436039190340e+16   1.5539377023489981e+17   9.3134823271497264e+16   -7.8246159744435792e+16   4.4562523462170712e+16   2.2085987519552784e+16   -1.4766180188719124e+16   2.2193322361399384e+16   -6.8130464075772344e+16   -1.0534125535932328e+17   1.1652917623693115e+15   -3.4264750974876536e+16   -2.0538520663830636e+16   5.9053697487959936e+16   1.1080744724487570e+17   2.1970011625995869e+17   5.2090230327596344e+16   1.3118616331238750e+17   -1.0360580408617360e+17   2.0372932479015920e+16   -1.6708617133089500e+16   -1.1575049016594520e+17   -1.5552762757398819e+17   -1.1480351970768266e+17   -1.6512808654524086e+17   -2.2728870386126552e+16   -7.7294927075854528e+16   4.6051401329659464e+16   9.0679148875741424e+16   8.0827961020225730e+15   5.3019083593729376e+16   1.5755016924832253e+17   -1.3503337587589341e+17   -4.0397943370116560e+16   9.1302784290448736e+16   6.1148409747263128e+16   -3.1059395586018160e+16   1.2760136694997772e+16   1.6724899460411590e+16   6.5488816424692520e+16   4.7345193715879240e+15   -1.7926053147950096e+16   -5.8274574345126210e+15   -3.0481353536266304e+16   -4.2050811187973744e+16   1.2744015178885208e+17   -1.4265506311309634e+17   -1.1100876276694269e+17   6.2770169456376000e+16   -8.0952193824564848e+16   -4.5155497446441760e+16   5.2496132941519800e+16   4.4941134273532752e+16   4.1728001212289544e+14   -5.7663428834598296e+16   -9.8102604893473952e+16   5.8814901929631720e+16   -4.5209780046603704e+16   -2.4087048734485172e+16   -4.8044196247363440e+16   -4.9050729955675400e+16   -1.0254867976564696e+17   1.5389895123465552e+17   1.4386833939334910e+17   -1.0194385302345392e+17   -1.0783232864729907e+17   -9.6940330383670640e+15   1.1284370239161856e+17   -2.4568064500759916e+16   3.5540039020033824e+16   -1.6923454439353680e+17   -6.8181201531793120e+16   -3.6960363521982088e+16   -2.4926285016526764e+16   4.4685435836136864e+16   2.7545219018306320e+16   -4.7307664380988840e+16   -7.8887383707407456e+16   -2.8404336230261312e+16   -1.6398872970097280e+17   9.3262333246433680e+16   8.4900350067933536e+16   -1.2716404346856744e+17   -1.0881365386308011e+17   -8.3505458863310336e+16   -4.4262675765749344e+16   3.9863473492837075e+15   -2.7862882097522528e+16   -1.7313372541238550e+17   -1.7780854942627478e+17   -4.3799189658344304e+16   -8.0939316347533488e+16   3.8794712470398712e+16   -2.3132085658148168e+16   2.4459022721310800e+15   1.9334853360154070e+17   -3.1664687470266368e+17   -1.5851544277398429e+17   -1.0804981080969318e+17   -4.4717549637202720e+16   -1.1659947352121603e+17   -2.1452065565817476e+16   -3.9128955275171216e+16   -6.3741171246979560e+16   3.1080921760461784e+16   -7.3107618172887584e+16   6.5227428065981760e+16   -2.7076936957312680e+15   -4.1737628236624688e+16   -1.0491713650228570e+17   -1.6972398585588650e+17   -1.2021637407912006e+17   -9.2041726023820800e+16   1.0986920462495064e+17   5.1052753309789352e+16   1.0364383357049670e+16   -2.7858228117017494e+17   -1.3523536832769944e+17   3.4571469693882592e+16   2.6575719032524056e+16   -4.7058528927760248e+16   -2.8796788708848815e+15   5.8384360102184904e+16   1.4700616892640256e+17   -8.9077108986847216e+16   -8.5269945835900544e+16   -1.3423566969834859e+17   -1.8121224523033053e+17   -8.8344253235003824e+16   -7.7400568441708272e+16   -1.2467016795555365e+17   -7.2139589413406624e+16   -1.2399803632757795e+17   6.8684846800443340e+15   -5.7528064776395120e+16   -7.4029803556027728e+16   6.7796578932376288e+16   1.0222616971288045e+17   3.5867675986123304e+16 