<?xml version="1.0"?>
<VTKFile type="UnstructuredGrid"  version="0.1"  >
<UnstructuredGrid>
<Piece  NumberOfPoints="2534" NumberOfCells="4892">
<Points>
<DataArray  type="Float64"  NumberOfComponents="3"  format="ascii">0 3 0  0 -3 0  6 -3 0  6 3 0  3 -3 0  6 0 0  3 3 0  0 0 0  3 0 0  0 -1.5 0  1.5 -3 0  1.5 3 0  0 1.5 0  6 -1.5 0  4.5 -3 0  6 1.5 0  4.5 3 0  4.25 -1.25 0  1.75 1.25 0  2.25 -1.5 0  4.5 0.75 0  1.541666666666667 -0.2083333333333333 0  3.219827586206896 1.521551724137931 0  1.125 -1.875 0  4.875 1.875 0  0.8702651515151515 0.631628787878788 0  2.25 2.214285714285714 0  3.316176470588236 -1.904411764705882 0  5.214285714285714 -0.75 0  5.03125 -2.03125 0  0.96875 2.03125 0  4.041666666666667 -0.2083333333333333 0  0.8205128205128206 -0.9134615384615387 0  3.942582294752138 2.189194098250713 0  3.061487638533674 -0.968243819266837 0  2.192708333333333 0.4427083333333334 0  4.157850026972511 -2.182329047049442 0  2.331456616463011 -0.5285296485744057 0  3.654761904761905 0.5654761904761902 0  5.25 1.125 0  2.563673341677096 -2.280663329161452 0  5.126674107142857 0.1283482142857142 0  0.75 -3 0  0 -2.25 0  6 2.25 0  5.25 3 0  0.7680051888903191 -0.1384245958639337 0  1.617229471026718 -1.006949429867069 0  4.218940341429579 1.468686552856807 0  3.75 -3 0  2.25 -3 0  0.75 3 0  5.25 -3 0  6 -0.75 0  0 -0.75 0  0 0.75 0  2.25 3 0  6 -2.25 0  0 2.25 0  3.75 3 0  6 0.75 0  1.787573018358365 -2.279142327213878 0  3.195025188237337 2.273430909158844 0  2.528159645294386 1.151699106559287 0  1.041598427383826 1.322848427383826 0  1.520951704545454 0.4634232954545453 0  1.580357142857143 2.325892857142857 0  4.919642857142857 -1.361607142857143 0  4.54981623521892 -0.6483700862895494 0  2.99317863826574 0.6697091957925523 0  3.450169349029507 -0.4574865881858001 0  3.605016126014028 -1.323102984840902 0  2.745144658907412 1.882241931337371 0  0.4898065586600511 1.092777516238393 0  0.5 -1.875 0  1.217028489597945 -2.469323836800685 0  1.659912685567181 -1.604738056701542 0  5.4375 1.6875 0  5.34375 2.34375 0  4.52741779500503 2.384139265001677 0  3.375 -2.514804579549941 0  0.5446428571428571 -2.455357142857143 0  2.766554087216865 -1.745795909102064 0  4.525516559010988 0.1490283123570637 0  3.87554132162248 -0.8280516069565407 0  4.53622906132958 -1.76963146596888 0  0.4243951612903226 1.875 0  0.554851858345021 2.446861709948876 0  5.575604838709677 -1.875 0  5.445148141654979 -2.446861709948876 0  4.875 -2.575604838709677 0  1.440573466105381 1.721823466105381 0  2.193519495405082 1.631799415080963 0  5.472630128027442 -1.330813078900983 0  4.750126894286386 1.343813447143193 0  5.607142857142857 -0.375 0  2.625 2.607142857142857 0  0.3921763197810531 0.375 0  5.60901753622775 0.3750000000000001 0  1.125 2.613454943235572 0  3.701856738980915 1.163867513386733 0  3.736112850688509 1.696746876851408 0  3.519183195491339 0.06065128742606851 0  3.973620778217027 -1.693401606145563 0  0.8125 -1.444978632478633 0  1.256657745408029 -0.6381828923025001 0  0 -1.125 0  5.019997778514942 0.6475044429701156 0  4.125 3 0  1.285569332703024 0.8955310332120207 0  0 -0.375 0  0.4638922275641027 -0.5625 0  2.056635259780241 -0.07226025978024064 0  2.130475508371123 -1.000827820434028 0  2.677484372338113 -1.267299126394495 0  2.848680878891876 -0.4956836878192376 0  4.937901885089369 -0.3340245904575954 0  4.393563081308854 1.919544166973803 0  4.053859126323572 0.2813938488760716 0  1.181051704329518 0.1167440895674965 0  1.971354166666667 2.607142857142857 0  4.875 3 0  2.519350561152006 0.08093582719875507 0  3.139443301924015 -1.442524927271905 0  6 2.625 0  1.849169256239503 1.945480934753207 0  1.867196483071171 0.7892354369530077 0  1.192506522009051 -1.184888428863342 0  3.375 3 0  3.603234392481833 2.536866305538572 0  3.846752908916648 -2.537707634073423 0  2.014339897513945 -1.886932065281681 0  4.038392037966526 0.8363324773944992 0  4.421242701722609 -2.552534687860327 0  3.715389848650903 -2.108856956172843 0  2.985668138820625 1.127780908772207 0  0.4500794934449803 -1.173696061598557 0  3.366760888116476 0.8891914618875614 0  1.869163043700093 -0.6107175804171328 0  2.175114838273305 -2.53928723780967 0  3.014417665538299 -2.241523065744933 0  2.625 -3 0  2.819968145332426 -2.617202329573456 0  5.625 1.3125 0  5.563263538826679 0.814027077653358 0  5.625 3 0  2.550041671270923 0.7074928970804664 0  4.014583091741168 2.59891853892166 0  0.6440729668673318 1.499523832583132 0  5.219449799568244 -1.660557808485412 0  3.474012636702472 -0.9300738420779746 0  0.8125 -2.142857142857143 0  1.875 -3 0  4.945010515846405 2.554471797033147 0  2.611388969012422 -0.8478354915063726 0  3.223746055611014 0.3371683159691745 0  4.843939757110898 -0.9483610977948225 0  4.66556954816842 -2.220888354477256 0  4.125 -3 0  4.448108395110625 -0.2524000502731018 0  5.63671875 2.05078125 0  2.822484133964224 1.491327727709286 0  3.378213092764193 1.903125093887009 0  5.607142857142858 -0.9231200445788541 0  2.12639693023183 1.100450516019641 0  5.625 -3 0  0.375 3 0  0 2.625 0  6 -2.625 0  0.3931307155906299 -0.01856779822591927 0  0.8549199714190221 -0.5218333744252657 0  0.7651723094668359 0.253768144801553 0  1.421989550604507 -2.133299471886336 0  1.582611957351803 -2.615166692128227 0  4.420331038793115 1.133144382396504 0  0.375 -3 0  0 -2.625 0  5.078156723571596 1.54697017071479 0  1.877250715260938 -1.288801575378032 0  2.409169073010687 -1.916147168931784 0  1.146151077069952 -0.268000681695328 0  1.726784828652036 0.1335728643263411 0  2.745628549924675 0.3838821021397905 0  3.011490900297165 2.613625569196862 0  5.62463365164608 -4.137655439684362e-05 0  1.875 3 0  1.125 3 0  6 0.375 0  2.625 3 0  6 -1.125 0  6 -0.375 0  4.875 -3 0  6 -1.875 0  3.375 -3 0  1.125 -3 0  0 -1.875 0  0 0.375 0  0 1.125 0  0 1.875 0  6 1.125 0  6 1.875 0  4.813017731148975 0.9677363687196439 0  2.807371623148303 2.264962208227767 0  0.3692953377255688 0.7436406761680247 0  5.615625 2.615625 0  0.9395725521479794 0.9812935874921043 0  1.390920759130215 1.238984550166515 0  0.9588795022085095 1.672288500195331 0  0.87712392565124 -2.641031728267331 0  0.3665732993114588 -1.532068934251388 0  1.841944504733106 1.591700334213738 0  4.832970185136452 0.3385359233091246 0  4.169083540479082 -0.5746148619765254 0  5.281697083409333 -0.2046640461936881 0  4.072845380968044 1.784516523483641 0  1.293029195762321 -1.543079049035419 0  4.878733886054284 -1.720697370582964 0  3.609167475697567 -1.687579152754035 0  4.836981942878573 2.222259978217028 0  4.204938267037067 -0.9128589669335569 0  5.183079748175263 -1.111742407358677 0  1.469404041858679 2.654509729682302 0  1.22880920402559 2.273525645756405 0  4.566761045622856 -1.414165869120005 0  4.531680518427715 1.606803989975667 0  1.918929241273175 2.27471131819245 0  3.590183783343969 2.184680610175416 0  1.85683899811842 0.4533569963423589 0  1.173935704088662 0.4636872214645547 0  2.116602160898525 -2.207718541460878 0  4.51821874648995 -1.042568353750147 0  2.721551512787618 -0.1859357475290837 0  5.294921875 2.001953125 0  5.288671874999999 2.670703125 0  2.199940744527116 0.7756512213396931 0  4.090519467638897 1.163401080812838 0  2.298177083333333 2.670581371753247 0  2.484362362207526 -2.687319997637033 0  3.300530569898859 1.207053005217563 0  3.936078051808127 -1.362164062673065 0  5.341218841330105 0.5689885832563615 0  4.226314635599414 0.5638853401248238 0  2.524510956818563 1.635483567726497 0  0.3219546452225031 1.389066019009203 0  3.139061555368706 -0.3133905221155423 0  3.145569907612562 -0.6461828528638952 0  3.701427442033566 -0.2272880199383185 0  1.686782510365738 -1.934662341426927 0  2.427696494631844 1.944064773844184 0  3.901817839425732 1.422433381251312 0  2.356489883772755 -0.2025512972825912 0  4.820757576351118 -0.01647699434507374 0  3.064415631228375 1.809719380809516 0  4.643002705009462 2.69782572459795 0  4.31624250429496 2.728112685900672 0  1.520100694408069 -1.314302747998057 0  3.754559308601717 -0.5375020107416889 0  0.25 -2.0625 0  0.8125 -1.826636904761905 0  4.861738621091127 -0.6367294570749906 0  1.545149590740081 2.015832101819233 0  3.857113324620078 0.04127675193819436 0  0.3162874907704933 -0.864918315983958 0  4.21293081604216 2.352874368135467 0  3.123697687162562 -2.708090473740421 0  3.415275466010259 -2.202892416689829 0  3.601103065320932 -2.727566580522146 0  1.558629964945672 -0.5289921609136927 0  3.324859026263307 -1.198136798699183 0  2.424350759683917 -1.092246517929194 0  2.789248065239812 0.8954629970670158 0  0.8882026075771248 2.364936378889839 0  0.8066140242673685 2.679750706449505 0  4.504454978490482 0.4491616076730165 0  4.26881784709759 -0.009649566552704852 0  1.313479173834523 -2.758675889510418 0  1.120577805361368 -2.179971784090952 0  3.734048623985226 0.8602850349907256 0  3.527828882622877 1.432983527791925 0  1.959527908877504 -1.578124930685265 0  0.7602573574724077 1.220872343399509 0  0.6691217533356228 0.8531987603309893 0  1.877213035764122 -2.564340152892596 0  3.304349402914068 2.552016594979913 0  4.285565286275464 -1.569057178671076 0  4.227521511146333 -1.876903861267543 0  5.34375 1.40625 0  5.71875 1.59375 0  1.56245959534423 0.766197796710638 0  0.2458241530773257 2.4375 0  0.2794123857609179 2.138568368155198 0  5.754175846922674 -2.4375 0  5.720587614239082 -2.138568368155198 0  0.6472458227887359 2.124973059628837 0  5.124241021325378 -2.352544055105642 0  5.189172233440652 -2.675873509996353 0  5.364643151640443 -2.12768524739804 0  2.298896485720138 1.348573610321417 0  0.6008689899200503 -2.745193425346304 0  0.307092513690391 -2.651812055231556 0  0.2683745826107009 -2.363146293324415 0  0.5223214285714285 -2.165178571428571 0  0.5169611136983336 2.740349995819724 0  5.607469108596883 -2.699891746740618 0  2.138439274270545 1.947386893596098 0  1.25507379660067 1.953406658386351 0  4.135759889512124 -2.476847355718572 0  2.548249345531056 -1.538893887888457 0  2.771010284190282 -2.05339728351
[...]
<CellData  Scalars="f_26-2"> 
<DataArray  type="Float64"  Name="f_26-2"  format="ascii">-1.2372777671254775e+25   -1.5347188204966527e+25   -2.2818069920244704e+25   -1.9800649823791362e+25   -2.1832382664787203e+25   -4.0108458753766389e+25   -1.4376097381394362e+25   -1.8607384689721893e+24   -1.5627391872434082e+24   -1.2290780919181627e+25   -1.0763979758377644e+25   -2.1368393340231881e+25   -7.9168513798171116e+24   -2.6081789713658966e+25   -2.2487311754069901e+24   -1.6206125805464077e+25   -2.1691906385143433e+25   -5.0351982290240596e+23   -1.5982346921228744e+25   -9.1154113340522488e+24   -2.7519697034263771e+25   -6.4440567143713243e+24   -1.7416400181560732e+25   -9.0671032509190610e+24   -1.2466118190897295e+25   -1.6070250660860333e+25   -2.8960668646863555e+25   -1.0074129072563750e+25   -9.9113144069304186e+24   -1.4928723022672116e+25   -7.2302133094933701e+24   -7.5526193192311669e+24   -1.2754355466875889e+25   -1.2029314671400495e+25   -1.3207632451107382e+25   -1.4780566835716675e+25   -1.8235217709685282e+25   3.5591478961642247e+24   -2.2802436618839970e+25   -1.5728967652961764e+25   -6.1047487315003849e+24   -1.4094465263359259e+25   -1.0167766624887420e+25   4.8353252660855713e+24   -5.1725947882086610e+25   -2.4065532777691444e+25   -3.0567824777965557e+25   -8.0411907196697670e+24   -1.9455487699315843e+25   2.7198805665881234e+23   -2.1088857951852546e+25   -1.4861610359711049e+25   -7.6772024224831877e+24   -1.6853925814008499e+25   -1.3616618823212677e+25   -1.4576625399339387e+25   -2.2608451700269221e+25   -1.6858489143543238e+25   -2.2304611060219325e+24   -2.2050859515819173e+25   -9.4202474317129428e+24   -1.4526138463281956e+25   -2.2142441063018192e+25   -1.3229425430956017e+25   -4.2860831798680093e+24   -1.6060101651856100e+25   -2.3113861611539298e+25   -3.1441062975931330e+24   -6.4304259038842744e+24   -1.7010287168760696e+25   -8.9894795886276052e+24   -7.3951263606273342e+23   -4.0955806383254478e+24   -1.3551687858124327e+25   -1.1314155783425409e+25   -1.6743057674288428e+24   -7.3727758647164864e+24   -1.4055089944199873e+25   -2.5724177879006933e+25   -4.0834483829996987e+24   -8.2303406620518533e+24   -1.1934672340842276e+25   -1.6810241652681580e+25   -2.7042520086789385e+25   -1.0007982215153185e+25   -1.5669416264987363e+25   -5.2340686346904453e+24   -1.3007509855922796e+25   -1.2744710551206511e+25   -1.3814113031773561e+25   -1.6092049410713697e+25   -1.5157005948013235e+25   -2.7950880192034741e+25   -3.3489632471916171e+24   2.7696899165115049e+24   -2.6561548309281069e+25   -1.2040815210828258e+24   -1.0778944367595015e+25   -1.1950809845722326e+25   -8.2020029472484540e+24   -7.9341082822246976e+24   -2.8416766237634047e+24   -8.5362529845376041e+24   -6.6702546199128086e+24   -1.4608206833131102e+25   -2.5017836794198160e+25   -2.0630933058624188e+25   -1.0667236229623943e+25   -2.1380826752744990e+24   -9.3326979484110013e+24   -1.0097669336361845e+25   -6.5753193939244966e+24   -7.1587290142924444e+24   -1.0982799007749402e+25   -1.2729963359063781e+25   -2.2996293607463490e+25   -3.4708232733356879e+25   -6.5482755625104982e+24   -7.6907657828160556e+24   -3.2203001617965734e+25   -1.9985432523853543e+24   -1.8408809985216674e+25   -1.7786303275323951e+25   -5.3575919073986317e+24   -1.4387733294905545e+25   -7.3817201309281588e+24   -4.3403250721360086e+25   -1.3409081951161502e+25   -3.1368901941901512e+25   -7.1622162338047910e+24   -1.1143336305601975e+25   -1.4859747673235087e+25   -1.4194134661645817e+25   -4.2061210190198094e+24   -1.1833333907331187e+24   -6.8815207565390473e+24   -1.6075707432778499e+25   -3.4010685331480169e+25   -4.5692436154335954e+24   -1.8984714762220728e+25   -9.7217215581898128e+24   -9.0144534228508162e+24   -2.4736116483621182e+25   -2.6105091434941772e+25   -3.1526289282411285e+24   -7.6150280105865303e+25   -1.7170005907828384e+24   -1.9591767542850733e+25   -1.2500873363880735e+25   -4.1618628526554596e+24   -9.2348076977144154e+24   -1.1541956124013850e+25   -1.2655417731513153e+25   -1.6836403772173205e+25   -1.4754873749039104e+25   -9.8128728968351599e+24   -1.6126027737993052e+25   1.6391457153997751e+24   -2.8097247718544994e+25   -6.1875251576471228e+24   -2.6222522617553862e+25   -1.1387949834190934e+25   -1.4202462473548334e+25   -2.5090026818032657e+25   -6.8491402425211572e+24   -2.5091145913987785e+25   -1.2084428784128797e+25   -2.1005017790441208e+25   -1.1671113160628432e+25   -1.1632691075317735e+25   -3.1807183292841420e+24   -4.8568988111823091e+24   -1.4871669407072110e+25   -4.1346343047697633e+24   -1.0546046138741846e+25   -3.6420903991089987e+25   -1.2755161201369340e+25   -9.3677666580969118e+24   -1.6378191756545945e+25   -5.7319296792387279e+24   -7.5277701651033568e+24   -2.1328378984004846e+24   -5.6502120054558582e+24   -9.2927815320890199e+24   -3.3946469547020834e+25   -3.0114919687077395e+25   -1.7876243744588832e+25   -1.5773620699464179e+25   1.2349517103930662e+24   -9.4480632352569928e+24   -4.2880790950955049e+24   -1.6371677939867849e+25   -2.9340493502937524e+24   -1.3083947979888692e+25   -2.5373689221820258e+24   -2.4382619167843143e+25   -1.9965618486182961e+25   -1.6689773821610396e+25   -5.6228232053505267e+24   -7.3609088313801419e+24   -1.4312114686886190e+24   -1.5763121940681156e+25   -1.8861234823023292e+25   -1.3343036601701010e+25   -1.8513287727784817e+25   -1.0392063924346296e+25   -4.1746253336513051e+24   -2.7754001256299312e+25   -1.1937452978917367e+25   -1.7559310761657614e+25   1.8328718227314216e+24   -7.3753212998066921e+24   -1.6172371448311207e+25   -2.3149517785805119e+24   -3.0281332191040196e+25   -1.6816839809831557e+25   -2.3629480061257206e+25   -9.3079578449583226e+24   -7.3535169335218619e+24   -3.2230281542972141e+25   -5.8288376869023285e+24   -1.7565912501454254e+25   -2.9194445216616375e+25   -1.3453560900974324e+25   -1.8402255328409861e+25   -1.8420630692964961e+25   -2.4773901846466883e+24   -6.5504027231558610e+24   3.9232709430236918e+24   -9.8902014309460381e+24   2.7124015807029882e+23   -2.7107891878711725e+24   -7.2632521539733411e+24   -8.8962129796788562e+24   -2.2155826750943018e+25   -2.1572018914781058e+25   -1.5146084856419497e+25   -8.7920136759292098e+24   -5.6210682187993977e+24   -5.5837407288299011e+24   -2.9504043256791776e+24   -1.3645543599162753e+25   -1.9969928613064571e+25   -6.6015469925838549e+24   -2.5045392522936349e+25   -9.0343204811117634e+24   -2.5781745722054878e+25   -8.3763548178125967e+24   -4.5941954454192178e+24   2.0092799980135731e+24   -4.2572834518595960e+24   -4.6618492648424083e+24   -1.6980381631001812e+25   -1.1833063078080212e+25   -7.4250657272723903e+24   -5.4367104905836165e+24   -6.8553747482512553e+24   -9.1925577068205234e+24   3.0809649357739629e+24   -1.0372011565476528e+25   -6.0449970371827165e+24   -2.6487467859780228e+25   -9.1522636786288081e+24   -1.3560900785410430e+25   -1.0925254655300109e+25   -1.6407894098201298e+25   -5.8944796394682874e+24   -9.8392354330587932e+24   -2.1341859433290060e+25   -9.2276510997698798e+23   -1.3019637390515193e+25   -2.0239393486839622e+25   -2.4374633559797184e+25   -2.0775205101217572e+25   -1.0368172167370717e+24   -4.1806689842752384e+24   -2.0773660156443103e+24   -1.6955878642901634e+25   -9.7132943145034945e+24   -4.5309013376847500e+24   -1.2520754423283369e+25   -2.3961178617442131e+24   -1.8175007064144847e+25   -9.6195205762632569e+24   -5.2376210762386983e+24   -3.9790883549315117e+24   -1.4047592176670159e+25   -1.3891583704211178e+25   -1.1021432682619226e+25   1.1841387876651252e+24   -1.5560512725008625e+25   -1.7069379158283546e+25   1.6803799922910971e+23   -5.6423936812924916e+24   -7.1162412619961732e+24   -1.2745647544799707e+25   -1.2625558359635073e+25   -2.8582590637828429e+24   -1.4759034180907879e+25   -4.0576191444360040e+25   -2.1101753206963327e+25   -1.1965148251350087e+25   -1.3558799228375764e+25   -8.5051756016177303e+24   -4.4116728982836876e+24   -6.0856642742480678e+24   -2.6002639713118537e+25   -2.7121427845365717e+24   -9.9144883650276488e+24   -6.6226599591248876e+24   -8.3499000115787497e+24   -1.0198891438743517e+25   -1.9989681806538644e+25   -9.7981589396477205e+24   -1.2490579623007769e+25   -8.9363961857352006e+24   -1.1403099475723879e+25   -1.3977200076519871e+25   -8.8940553618122060e+24   -2.1260846678015900e+25   -2.2514997377470310e+25   -6.8168393782533417e+24   -1.1727565877219930e+25   -1.9638531294070110e+25   -8.2926488465527625e+24   -1.1494616208514343e+25   -1.1920606192508297e+25   -1.7839810695858110e+25   -1.6531334540782812e+25   1.2070103982927594e+24   -1.6498214149327088e+25   -1.1261482049343661e+25   -1.6865642478751341e+25   -2.0089501652679678e+25   -1.1681822195437253e+25   -1.8132807899487580e+25   -5.7409487726366164e+24   -4.8481579315674334e+24   -1.0286539477026979e+25   -1.4939478819501407e+25   -4.0393528415461393e+24   -7.8769597102652217e+24   -7.0497211920508888e+24   -6.5545137631607946e+24   -5.6304435411669211e+24   -1.5618403413265035e+25   -7.4480631023585682e+24   -4.5801084720715157e+24   -1.4750642083679209e+25   -7.5749514267087304e+24   -7.5401331164601515e+24   -8.4904434977896288e+24   7.7149948372038971e+24   -1.9746181386292326e+25   -2.2337084082315553e+25   -6.0340776561211775e+24   -9.3264944325831192e+24   -5.8389006095698150e+24   -3.5814314712043197e+24   -8.8095838413027315e+24   -5.8917105862085114e+24   -2.9082355342092708e+25   1.7934288546878797e+23   -1.2182024246780020e+25   -5.4010954787793373e+24   -1.2830177199589327e+25   -2.2768754744481987e+25   -2.7044305719215266e+25   -1.2187889521445550e+25   -2.6076291463073308e+25   -7.4276615288041337e+24   -2.0325881680498517e+25   -5.5844538820912104e+24   -1.0970218369179163e+25   -6.5531795885254090e+24   -9.0293484289935820e+24   -1.4361332665780963e+25   -7.3969079626229956e+24   -2.0376624266482579e+25   -9.7979686038321313e+24   -4.7958485684413425e+24   -3.8330942803076336e+24   -1.0697857654127439e+25   -3.2881399808324586e+24   -1.1458901380282925e+25   4.1017552308175323e+24   -1.3876217421174960e+25   -1.0392437683867265e+25   4.4446585506339903e+24   -1.4455113166071201e+25   -5.8130931022041017e+24   -9.5073057093774950e+24   -1.0464598171584434e+25   -1.6997372802772907e+25   -1.0890852075231097e+25   -8.0954628227151751e+24   3.2023932883380219e+24   -3.0231238042512714e+25   -1.5018629811630128e+25   -1.3446345419722878e+25   -1.3679809738742627e+25   -6.3212893518067997e+24   -2.5427930550267463e+24   -7.7936714684317215e+24   -1.2275192854018718e+25   -2.9226285233871414e+25   -1.2919621004880868e+25   -4.5593510785448821e+25   -1.2114018462170172e+25   -2.2051157562090905e+25   2.0972629776347136e+24   -1.1694155648180778e+25   -1.1600545361092218e+25   -2.2422743812993612e+24   -4.9074466284066223e+24   -1.6539768628231380e+25   -2.2252370913093795e+25   -3.1609342569043429e+24   -4.3857489682194617e+24   -7.3132384009053279e+24   -9.9702890385336320e+24   -1.7963516982964129e+25   -8.5393940811676937e+24   -2.8008958660361397e+25   -5.6899357854757838e+24   -6.8642425715992300e+24   -1.0501023704616718e+25   -2.8876210799911264e+24   2.7201492543147253e+24   -1.3287841973156213e+25   -1.0367602662099114e+25   -1.2690776698153529e+25   -7.2112816870166663e+24   -9.3575844422711640e+24   -8.7979114838382056e+23   -1.9885290143330995e+25   -1.2877113855761452e+24   -3.9091187179692789e+24   -8.4034151065337653e+24   4.9596473240070297e+22   -1.9319046179241104e+25   -1.7002368580010968e+25   -7.1255025358955546e+24   -2.0789283921752931e+25   -2.2753334455323914e+25   -1.5027653922691297e+25   -4.8770700979632103e+24   -1.2345262233193787e+25   -1.0324100351466793e+25   -1.2976753243023489e+25   -5.6453576691199344e+24   -2.3266127113842103e+25   -2.0427856958457769e+25   -1.5750672149874672e+25   -1.3524506373426485e+25   -8.0737452622163390e+23   -2.1127697176628729e+25   -1.1753435554059053e+25   -1.4444393885815960e+25   -1.2156151312749975e+25   -2.4193617847318731e+25   -6.8544525215655932e+24   -7.4185436442318940e+24   -2.3921617157368461e+24   2.1149133724985469e+24   -2.0986070629659292e+25   -1.2893939288581792e+25   -2.1682202448772850e+25   -4.2571404087378635e+25   -1.6811501829565617e+25   -1.0587867164931698e+25   -7.2344880732500241e+24   -3.3633944146460612e+24   -1.1953167943689528e+25   -2.2054196519214242e+25   -7.2717958173796504e+24   -1.4951940890139669e+25   -1.0070628418937184e+25   -1.1804063509048899e+25   -6.7132424191217001e+24   -2.5253228016560729e+25   -1.4682449539889346e+25   -1.4754857508203187e+25   -9.1583988486422023e+24   -1.3041400833096527e+25   -3.7526424188333311e+25   -1.5090690799512443e+25   -1.3543376618203659e+25   -9.4097318108078837e+24   -8.9136426551938667e+24   -9.8158763926327904e+24   -4.4778072135460939e+24   -6.9804391575618317e+24   -2.9023526097495966e+24   -5.0165068969714835e+24   -9.2436781291776953e+24   -2.0017021583737028e+25   1.5601460269251445e+24   1.5938306598639741e+25   -1.1216493163714588e+25   -2.0969658176516463e+24   -1.1181726136939992e+25   -8.9229926841396542e+24   -6.3147081603277843e+24   -1.6397867751170110e+25   -1.5187148180301723e+25   -2.6761051943001699e+25   -3.8636789057133363e+24   -8.6495125135788214e+24   -9.3359071991040074e+24   -3.5353432130896475e+23   2.3661221788053895e+24   -2.0630252560669583e+25   -1.9002676515934793e+24   -6.5553719198060021e+24   -1.9805204224283014e+25   -2.3142560321583344e+25   -1.9114571432737463e+25   -7.2393500337760865e+23   -3.3191752785658759e+25   -1.0602076202367484e+25   -2.6060330715238978e+25   -7.0186995190729574e+23   -3.2648224036326134e+24   -8.5079892473418640e+24   -8.3701271709971314e+24   -1.9469861995609910e+25   -1.1292428638819749e+25   -5.2023306867879004e+24   -6.5513137871016505e+24   -1.5352929713911302e+25   -3.3677514516601649e+24   -4.0078839145194682e+24   2.7448331206721972e+22   2.9061658353322931e+24   -1.5502435923144091e+24   -9.4047737894434445e+24   -1.6568090118761191e+25   -3.2287061321047325e+25   -6.7010545598097817e+24   -4.6594162679832465e+24   -4.2289003120061387e+24   -2.4197046513810973e+25   -1.4866578475322693e+25   8.2972446739624118e+24   -1.2318175131176855e+25   -5.1537601374051461e+24   -1.4398746987395809e+25   -1.5866757803597388e+25   -1.4357921508982800e+25   -1.4305305928520167e+25   -1.1653102144855769e+25   -1.9130625566573060e+25   -9.9464877739082382e+24   -1.2201483366098609e+25   2.4864147164662146e+24   -1.1419660018276173e+25   -1.0069311659512794e+25   -1.4693953414101707e+25   -2.3087798856303311e+25   -8.5067256233522147e+24   -7.2182248882771370e+24   -1.5867970390499983e+25   -8.1623387177399588e+24   -1.9456851159471552e+25   -1.0962700839365188e+25   -1.6286774985643700e+25   -1.0300056610917350e+23   -6.2423145220452978e+24   -8.6170112533465947e+24   -6.9165849508839260e+24   -6.3610581635146561e+24   -8.5845388028441033e+24   -1.0371568271572960e+25   -1.0080670421399082e+25   -1.6051643288480632e+25   -2.3949272838863353e+25   -8.1937385070981284e+23   -1.4929629826752229e+25   -6.6025692588434708e+24   -1.1020680375858427e+25   -1.4428723745970305e+25   -2.4829701309008782e+25   -6.7085900880777576e+24   -2.2187892450948040e+25   -7.6101651819882236e+24   -1.0442411484832917e+25   -3.1331189499304288e+24   7.2123318008538443e+21   -9.3856396679054592e+24   -1.0443139394938283e+25   -1.9066885887307367e+25   -2.0612955692202110e+24   -2.4580062382365489e+24   -4.6414126055361628e+24   -1.1232368521139051e+25   -1.7249770163259594e+25   -3.4486199104987000e+25   -2.9459992644935312e+24   -3.8721654577835030e+24   -1.1967674583514957e+25   -8.1828661310800931e+24   -2.1380197338567571e+25   -8.4903682528361358e+24   -1.4247843743913580e+25   -3.7271988538274695e+24   -2.6558639070097485e+25   -1.5365076029254143e+25   -1.2234484275692284e+25   -1.6870221258083364e+25   -1.9230020797160236e+25   -1.5720826913260961e+25   -6.3073455447124439e+24   -8.6253587142022266e+24   -7.8546485724482939e+24   -9.5670603407312898e+24   -1.0718948019887680e+25   -4.9478327780634921e+24   -8.4593090915578022e+24   -1.1983364141511058e+25   -1.2824169270528346e+25   -1.7061773434025720e+24   -1.3751949416676159e+25   -1.0468448612708098e+25   -1.9448786921262284e+25   -7.7681797746719237e+22   -5.1396802875584794e+24   -1.3302472443410669e+25   -2.6050470090853441e+24   -6.7811972211757318e+24   -1.4855215651831485e+24   -6.1602062077871930e+24   -7.6700095353527229e+24   -1.4985668743033483e+24   -3.6592822340979463e+24   -2.1037265474020913e+25   -1.0462372099332808e+25   -7.6682579731323059e+24   -9.4454287456454701e+24   -1.0442312286001536e+25   -1.3244505828462858e+25   -6.2829121563233005e+24   1.8420305471808412e+23   7.5548354167612014e+23   -6.8706545803262960e+24   -1.0521851790067055e+24   -5.6217814672737711e+24   5.1103423524595649e+23   -1.1513222368851975e+25   -1.0041761090212595e+25   -1.0999108980454171e+23   -6.5419528444391476e+24   -9.0388236224565080e+24   -4.9466274344992459e+24   -9.9336844076063023e+24   -1.6815505060869354e+25   -2.0518235172701847e+25   -6.6786858213427911e+24   -2.2373407023740456e+25   -1.2905473556401340e+25   -7.7844431356052071e+24   -1.9764484512111792e+25   -1.3653249672867451e+25   -1.5907425643996227e+24   -3.3071099038196813e+23   -7.2308600872615474e+24   -1.6942113236910204e+25   -1.0165686622529137e+25   -6.9420388950272510e+24   -9.3836669696386242e+23   -4.7422034973364772e+24   -1.0969459408689142e+25   -4.7616873693291018e+24   -1.0837977624585315e+24   3.5334402875677433e+24   -6.3444003021373397e+24   -1.0088628672093882e+25   -2.5606458751505882e+24   -1.8702434778462407e+24   -1.5053398478348071e+25   9.5326466729413127e+23   -1.0613037927386735e+25   -1.1941741182557903e+24   -1.1923683619171805e+25   -9.2665984096950954e+24   -8.0009744382024054e+24   -8.4871091515195557e+24   -1.6934196523325425e+24   -8.6331893847038120e+24   -2.7052379445103267e+24   7.0728861230294364e+22   1.2623465762484632e+24   2.6245777027787730e+24   -1.3486976954322908e+25   -7.2024061844358878e+24   -9.1647398126215284e+24   -2.4483140040683539e+24   5.2707024926815785e+24   -6.6178464886042821e+24   -2.3601919117598966e+25   -8.7400805674671375e+24   -1.0344563514965290e+25   -9.6513201221632397e+24   4.4396944170536130e+23   -2.0046801180939008e+24   3.0335170750550415e+24   -7.5108509329475435e+24   -7.2365148572595875e+24   -1.4892116672918127e+25   -1.5510390851673643e+25   -1.3306125485194943e+25   -1.8428956256256955e+25   -1.1469199142189349e+25   -1.2875265040837948e+25   -1.5419630736951241e+25   -2.1604624443769857e+25   -1.4321173976988866e+25   -7.2416176816565158e+24   -1.3223980830312641e+25   -1.7670912509905829e+25   -3.6328205302450282e+24   -1.1071983602603611e+25   -8.6767307345919800e+24   -1.2469654981359506e+25   -6.2902951445932089e+24   -2.3251720331990934e+23   -1.3794958667817769e+25   -2.8286420308932853e+25   -1.0635575875745432e+25   -3.4395541342813353e+24   -1.1697952749750521e+25   -2.2391703239485727e+22   -4.0674093443676841e+24   -2.1369588236329658e+24   1.9511323848677026e+24   -3.7394366889285608e+24   -1.5225858646783763e+24   -1.1604978781303627e+25   -1.3400252519728283e+25   -1.4744575876374876e+24   -7.7316981412520823e+24   -1.4092352945120769e+25   3.8926674680644945e+24   1.0588346839032004e+25   -1.4902613115335147e+25   9.2834358720830970e+24   -1.2960944010690749e+25   -1.6095754677000200e+25   -3.3508965649146578e+24   1.1504778876722160e+24   -1.9195979919880734e+25   -6.7155079422933661e+24   2.9838880748414020e+23   -1.3362679954637337e+25   -9.0094126606450528e+24   -1.4455684859725328e+24   -1.8466795851002879e+25   -9.7647786193546003e+24   -2.1152917120657870e+24   -5.8863653683871487e+24   -3.9155820660648599e+24   -8.5365856318044890e+24   -9.4591838380925486e+24   -6.1664904864093379e+24   -1.6285689828450644e+25   -3.3421453706549315e+24   -1.0635123832190600e+24   -1.425418770646193