<?xml version="1.0"?>
<VTKFile type="UnstructuredGrid"  version="0.1"  >
<UnstructuredGrid>
<Piece  NumberOfPoints="2534" NumberOfCells="4892">
<Points>
<DataArray  type="Float64"  NumberOfComponents="3"  format="ascii">0 3 0  0 -3 0  6 -3 0  6 3 0  3 -3 0  6 0 0  3 3 0  0 0 0  3 0 0  0 -1.5 0  1.5 -3 0  1.5 3 0  0 1.5 0  6 -1.5 0  4.5 -3 0  6 1.5 0  4.5 3 0  4.25 -1.25 0  1.75 1.25 0  2.25 -1.5 0  4.5 0.75 0  1.541666666666667 -0.2083333333333333 0  3.219827586206896 1.521551724137931 0  1.125 -1.875 0  4.875 1.875 0  0.8702651515151515 0.631628787878788 0  2.25 2.214285714285714 0  3.316176470588236 -1.904411764705882 0  5.214285714285714 -0.75 0  5.03125 -2.03125 0  0.96875 2.03125 0  4.041666666666667 -0.2083333333333333 0  0.8205128205128206 -0.9134615384615387 0  3.942582294752138 2.189194098250713 0  3.061487638533674 -0.968243819266837 0  2.192708333333333 0.4427083333333334 0  4.157850026972511 -2.182329047049442 0  2.331456616463011 -0.5285296485744057 0  3.654761904761905 0.5654761904761902 0  5.25 1.125 0  2.563673341677096 -2.280663329161452 0  5.126674107142857 0.1283482142857142 0  0.75 -3 0  0 -2.25 0  6 2.25 0  5.25 3 0  0.7680051888903191 -0.1384245958639337 0  1.617229471026718 -1.006949429867069 0  4.218940341429579 1.468686552856807 0  3.75 -3 0  2.25 -3 0  0.75 3 0  5.25 -3 0  6 -0.75 0  0 -0.75 0  0 0.75 0  2.25 3 0  6 -2.25 0  0 2.25 0  3.75 3 0  6 0.75 0  1.787573018358365 -2.279142327213878 0  3.195025188237337 2.273430909158844 0  2.528159645294386 1.151699106559287 0  1.041598427383826 1.322848427383826 0  1.520951704545454 0.4634232954545453 0  1.580357142857143 2.325892857142857 0  4.919642857142857 -1.361607142857143 0  4.54981623521892 -0.6483700862895494 0  2.99317863826574 0.6697091957925523 0  3.450169349029507 -0.4574865881858001 0  3.605016126014028 -1.323102984840902 0  2.745144658907412 1.882241931337371 0  0.4898065586600511 1.092777516238393 0  0.5 -1.875 0  1.217028489597945 -2.469323836800685 0  1.659912685567181 -1.604738056701542 0  5.4375 1.6875 0  5.34375 2.34375 0  4.52741779500503 2.384139265001677 0  3.375 -2.514804579549941 0  0.5446428571428571 -2.455357142857143 0  2.766554087216865 -1.745795909102064 0  4.525516559010988 0.1490283123570637 0  3.87554132162248 -0.8280516069565407 0  4.53622906132958 -1.76963146596888 0  0.4243951612903226 1.875 0  0.554851858345021 2.446861709948876 0  5.575604838709677 -1.875 0  5.445148141654979 -2.446861709948876 0  4.875 -2.575604838709677 0  1.440573466105381 1.721823466105381 0  2.193519495405082 1.631799415080963 0  5.472630128027442 -1.330813078900983 0  4.750126894286386 1.343813447143193 0  5.607142857142857 -0.375 0  2.625 2.607142857142857 0  0.3921763197810531 0.375 0  5.60901753622775 0.3750000000000001 0  1.125 2.613454943235572 0  3.701856738980915 1.163867513386733 0  3.736112850688509 1.696746876851408 0  3.519183195491339 0.06065128742606851 0  3.973620778217027 -1.693401606145563 0  0.8125 -1.444978632478633 0  1.256657745408029 -0.6381828923025001 0  0 -1.125 0  5.019997778514942 0.6475044429701156 0  4.125 3 0  1.285569332703024 0.8955310332120207 0  0 -0.375 0  0.4638922275641027 -0.5625 0  2.056635259780241 -0.07226025978024064 0  2.130475508371123 -1.000827820434028 0  2.677484372338113 -1.267299126394495 0  2.848680878891876 -0.4956836878192376 0  4.937901885089369 -0.3340245904575954 0  4.393563081308854 1.919544166973803 0  4.053859126323572 0.2813938488760716 0  1.181051704329518 0.1167440895674965 0  1.971354166666667 2.607142857142857 0  4.875 3 0  2.519350561152006 0.08093582719875507 0  3.139443301924015 -1.442524927271905 0  6 2.625 0  1.849169256239503 1.945480934753207 0  1.867196483071171 0.7892354369530077 0  1.192506522009051 -1.184888428863342 0  3.375 3 0  3.603234392481833 2.536866305538572 0  3.846752908916648 -2.537707634073423 0  2.014339897513945 -1.886932065281681 0  4.038392037966526 0.8363324773944992 0  4.421242701722609 -2.552534687860327 0  3.715389848650903 -2.108856956172843 0  2.985668138820625 1.127780908772207 0  0.4500794934449803 -1.173696061598557 0  3.366760888116476 0.8891914618875614 0  1.869163043700093 -0.6107175804171328 0  2.175114838273305 -2.53928723780967 0  3.014417665538299 -2.241523065744933 0  2.625 -3 0  2.819968145332426 -2.617202329573456 0  5.625 1.3125 0  5.563263538826679 0.814027077653358 0  5.625 3 0  2.550041671270923 0.7074928970804664 0  4.014583091741168 2.59891853892166 0  0.6440729668673318 1.499523832583132 0  5.219449799568244 -1.660557808485412 0  3.474012636702472 -0.9300738420779746 0  0.8125 -2.142857142857143 0  1.875 -3 0  4.945010515846405 2.554471797033147 0  2.611388969012422 -0.8478354915063726 0  3.223746055611014 0.3371683159691745 0  4.843939757110898 -0.9483610977948225 0  4.66556954816842 -2.220888354477256 0  4.125 -3 0  4.448108395110625 -0.2524000502731018 0  5.63671875 2.05078125 0  2.822484133964224 1.491327727709286 0  3.378213092764193 1.903125093887009 0  5.607142857142858 -0.9231200445788541 0  2.12639693023183 1.100450516019641 0  5.625 -3 0  0.375 3 0  0 2.625 0  6 -2.625 0  0.3931307155906299 -0.01856779822591927 0  0.8549199714190221 -0.5218333744252657 0  0.7651723094668359 0.253768144801553 0  1.421989550604507 -2.133299471886336 0  1.582611957351803 -2.615166692128227 0  4.420331038793115 1.133144382396504 0  0.375 -3 0  0 -2.625 0  5.078156723571596 1.54697017071479 0  1.877250715260938 -1.288801575378032 0  2.409169073010687 -1.916147168931784 0  1.146151077069952 -0.268000681695328 0  1.726784828652036 0.1335728643263411 0  2.745628549924675 0.3838821021397905 0  3.011490900297165 2.613625569196862 0  5.62463365164608 -4.137655439684362e-05 0  1.875 3 0  1.125 3 0  6 0.375 0  2.625 3 0  6 -1.125 0  6 -0.375 0  4.875 -3 0  6 -1.875 0  3.375 -3 0  1.125 -3 0  0 -1.875 0  0 0.375 0  0 1.125 0  0 1.875 0  6 1.125 0  6 1.875 0  4.813017731148975 0.9677363687196439 0  2.807371623148303 2.264962208227767 0  0.3692953377255688 0.7436406761680247 0  5.615625 2.615625 0  0.9395725521479794 0.9812935874921043 0  1.390920759130215 1.238984550166515 0  0.9588795022085095 1.672288500195331 0  0.87712392565124 -2.641031728267331 0  0.3665732993114588 -1.532068934251388 0  1.841944504733106 1.591700334213738 0  4.832970185136452 0.3385359233091246 0  4.169083540479082 -0.5746148619765254 0  5.281697083409333 -0.2046640461936881 0  4.072845380968044 1.784516523483641 0  1.293029195762321 -1.543079049035419 0  4.878733886054284 -1.720697370582964 0  3.609167475697567 -1.687579152754035 0  4.836981942878573 2.222259978217028 0  4.204938267037067 -0.9128589669335569 0  5.183079748175263 -1.111742407358677 0  1.469404041858679 2.654509729682302 0  1.22880920402559 2.273525645756405 0  4.566761045622856 -1.414165869120005 0  4.531680518427715 1.606803989975667 0  1.918929241273175 2.27471131819245 0  3.590183783343969 2.184680610175416 0  1.85683899811842 0.4533569963423589 0  1.173935704088662 0.4636872214645547 0  2.116602160898525 -2.207718541460878 0  4.51821874648995 -1.042568353750147 0  2.721551512787618 -0.1859357475290837 0  5.294921875 2.001953125 0  5.288671874999999 2.670703125 0  2.199940744527116 0.7756512213396931 0  4.090519467638897 1.163401080812838 0  2.298177083333333 2.670581371753247 0  2.484362362207526 -2.687319997637033 0  3.300530569898859 1.207053005217563 0  3.936078051808127 -1.362164062673065 0  5.341218841330105 0.5689885832563615 0  4.226314635599414 0.5638853401248238 0  2.524510956818563 1.635483567726497 0  0.3219546452225031 1.389066019009203 0  3.139061555368706 -0.3133905221155423 0  3.145569907612562 -0.6461828528638952 0  3.701427442033566 -0.2272880199383185 0  1.686782510365738 -1.934662341426927 0  2.427696494631844 1.944064773844184 0  3.901817839425732 1.422433381251312 0  2.356489883772755 -0.2025512972825912 0  4.820757576351118 -0.01647699434507374 0  3.064415631228375 1.809719380809516 0  4.643002705009462 2.69782572459795 0  4.31624250429496 2.728112685900672 0  1.520100694408069 -1.314302747998057 0  3.754559308601717 -0.5375020107416889 0  0.25 -2.0625 0  0.8125 -1.826636904761905 0  4.861738621091127 -0.6367294570749906 0  1.545149590740081 2.015832101819233 0  3.857113324620078 0.04127675193819436 0  0.3162874907704933 -0.864918315983958 0  4.21293081604216 2.352874368135467 0  3.123697687162562 -2.708090473740421 0  3.415275466010259 -2.202892416689829 0  3.601103065320932 -2.727566580522146 0  1.558629964945672 -0.5289921609136927 0  3.324859026263307 -1.198136798699183 0  2.424350759683917 -1.092246517929194 0  2.789248065239812 0.8954629970670158 0  0.8882026075771248 2.364936378889839 0  0.8066140242673685 2.679750706449505 0  4.504454978490482 0.4491616076730165 0  4.26881784709759 -0.009649566552704852 0  1.313479173834523 -2.758675889510418 0  1.120577805361368 -2.179971784090952 0  3.734048623985226 0.8602850349907256 0  3.527828882622877 1.432983527791925 0  1.959527908877504 -1.578124930685265 0  0.7602573574724077 1.220872343399509 0  0.6691217533356228 0.8531987603309893 0  1.877213035764122 -2.564340152892596 0  3.304349402914068 2.552016594979913 0  4.285565286275464 -1.569057178671076 0  4.227521511146333 -1.876903861267543 0  5.34375 1.40625 0  5.71875 1.59375 0  1.56245959534423 0.766197796710638 0  0.2458241530773257 2.4375 0  0.2794123857609179 2.138568368155198 0  5.754175846922674 -2.4375 0  5.720587614239082 -2.138568368155198 0  0.6472458227887359 2.124973059628837 0  5.124241021325378 -2.352544055105642 0  5.189172233440652 -2.675873509996353 0  5.364643151640443 -2.12768524739804 0  2.298896485720138 1.348573610321417 0  0.6008689899200503 -2.745193425346304 0  0.307092513690391 -2.651812055231556 0  0.2683745826107009 -2.363146293324415 0  0.5223214285714285 -2.165178571428571 0  0.5169611136983336 2.740349995819724 0  5.607469108596883 -2.699891746740618 0  2.138439274270545 1.947386893596098 0  1.25507379660067 1.953406658386351 0  4.135759889512124 -2.476847355718572 0  2.548249345531056 -1.538893887888457 0  2.771010284190282 -2.05339728351
[...]
<CellData  Scalars="f_26-2"> 
<DataArray  type="Float64"  Name="f_26-2"  format="ascii">1.0010028058535946e+27   -3.8268140780512116e+27   4.3970380771032064e+27   -1.0767085337202589e+27   -1.5813133819373094e+27   5.6827656396280662e+26   6.9206339885518713e+26   7.1331086270573433e+26   -7.3307376083839942e+27   2.5865617471148297e+26   -8.9842306562093861e+26   3.2111298020156850e+27   -5.0378110830463855e+27   4.0008899372696611e+27   8.2361119926509209e+27   -2.0771332170084643e+27   -3.1484374071229331e+27   2.3194206286813872e+27   -5.0925518224171068e+26   4.2072141766113565e+27   3.4358076084568889e+27   -1.2631547796529281e+27   -5.5405792488785318e+27   -4.0805503031362724e+27   1.0442062661419757e+27   -3.2523659413794595e+27   -1.5503471577440850e+27   2.7196394130629139e+27   2.2427758240985961e+27   -3.8908558372060407e+27   -2.8360890791635136e+27   -8.2168844446246839e+27   -2.9829101886988394e+27   -5.1734186066569097e+27   -4.1592690387521076e+27   1.9626035211638306e+27   3.1028806355732347e+26   -5.8093204347880386e+26   -3.8706768022864309e+27   1.6428519261286118e+27   1.1788400644775227e+27   1.7232548622315939e+27   4.5978098455818897e+27   6.6024273443556033e+27   1.4925297106451103e+27   4.2787549068759368e+27   4.8805715118335378e+27   -4.5019049378692235e+27   6.6018055792467669e+27   3.9568666958835398e+27   3.9636097103776684e+27   -6.0426512973743213e+26   -3.3586758103208318e+27   1.9309364671575678e+27   9.9801516932709267e+26   3.7412383233418171e+27   6.3205628604122136e+26   5.7068043329029377e+27   -8.6898354922192788e+27   -2.8596959713302654e+26   3.1758601329444629e+27   -7.4721766750432179e+27   1.3775008565247817e+27   3.4085863357392886e+26   -3.1750604634383347e+27   6.7980561696030043e+25   -1.0357049655493482e+28   -4.7355396182547079e+27   3.8690874627390782e+27   -3.0345065300748181e+27   3.2402105889564399e+27   -4.0825809850011551e+26   -4.2913845547108324e+27   -2.6384137882245182e+27   1.1404306861827383e+27   -8.4587494303196165e+26   1.0325752604706602e+27   2.4317443420549777e+27   -1.1911351184705091e+27   -2.7376567295766865e+27   -8.4504892070961962e+26   -1.0999795423800060e+27   8.7483377423603898e+26   1.1971024955172202e+27   -2.9873887146265747e+27   7.2648364736674433e+27   -1.5617066437889151e+27   -1.1491138361668195e+27   2.8359170966623208e+27   4.3194562459552123e+27   -5.2373270530569436e+27   -1.5851783948852120e+27   -1.6661449327167259e+27   2.7281744818252455e+26   -1.1191751989216752e+27   -2.4881857768782514e+27   -1.4970226861473450e+27   4.7377847876911361e+27   2.1375583936510148e+27   -3.9545877806217737e+26   5.3703525717733773e+27   4.4481538180701179e+27   -9.2327068642666934e+26   7.2700739596624686e+25   -2.6663127986149812e+27   -7.7798124791682401e+27   -1.3699423786660631e+27   -1.0761339478164965e+27   -9.4392946267914527e+26   -1.5764021487286528e+26   -2.7599610531130042e+26   2.5167729887589027e+27   -3.1341561079251856e+26   4.9098471946647567e+26   -1.1637252812406795e+28   -4.2418524784707755e+27   5.1324920357842787e+26   5.9186367196225971e+26   -1.0326149772605110e+27   -5.7062925982756763e+27   1.9362972073951844e+27   -1.3852184536984650e+27   2.6707648508372034e+27   -1.4261832775026442e+27   1.8518023522487705e+26   -3.7620720781245682e+27   3.3112307621797263e+27   -1.5541575294317465e+26   -1.0979006954849558e+28   -2.9348351322634947e+27   -2.3255111724343832e+27   -1.0550994741690540e+27   -5.7500588726122255e+27   -4.3683946720132485e+26   -2.6039922496486281e+27   -3.7317235528411113e+26   -2.9668176088704220e+27   1.7638337050023952e+26   -9.8618217677621323e+26   1.9843623875456708e+27   -9.4374985010347297e+26   2.4915800373783518e+27   5.5730220183615088e+27   1.4059433731581251e+27   -4.0773518477386237e+27   -5.2573406685718280e+26   3.8215150034537135e+27   -3.8259465225899495e+27   -2.2825161279151876e+27   1.6167089326978586e+27   -1.9671941531876617e+27   -2.9963890332971901e+26   1.1212195910242923e+27   1.0186907266900866e+27   2.0976943998039632e+27   6.4617354382172450e+26   3.0379922300007667e+27   -6.4665305594112097e+26   1.6705192644845242e+27   2.0174571065105650e+27   -1.3262905223612704e+25   6.8833486543470685e+27   5.9501626975013978e+27   -3.5105526163202959e+27   2.7988207452060635e+27   2.3761972022685909e+27   6.3027142989998195e+26   -2.8399739127320781e+27   -3.8440322119088311e+27   9.6833067785491075e+26   7.8995373066108258e+26   -1.6070109351508568e+27   -3.6061949765046983e+27   6.2734316175829210e+26   -2.3190236491278256e+27   -8.7193999994468372e+25   -8.8574866759395066e+27   -3.3031644811180130e+27   -4.4683759166415512e+27   6.3670455422837540e+26   7.5306236231442508e+26   -3.6928092565136797e+27   3.6117929561962272e+27   -1.9693838001133727e+27   -1.0286087524143291e+27   -6.6227235525905994e+26   -2.6241362498026599e+27   -1.4345483923354082e+27   -4.6089938944223035e+27   2.2099076040641302e+26   -1.2391329803137307e+27   -5.7276300548851202e+27   -6.0507496815697772e+27   6.9108172545844533e+27   2.7275184037790832e+27   4.2873587980495010e+27   -1.1255624876707474e+27   2.3562929239867687e+27   -3.4517576103062772e+27   -9.7497569177683753e+26   -3.5784815167085493e+27   -7.5570956535998387e+26   1.7714069938568873e+27   1.7412809763146809e+27   1.1232899169240774e+27   -4.1826211189225551e+26   -7.7314354308414263e+27   -1.1379475913666864e+27   -7.2935969252552247e+27   -3.3899280423748509e+27   3.1125780629907200e+27   5.2555693733011392e+27   6.9898191401705692e+26   -2.0208481103605415e+27   4.0320262828340734e+27   3.8080207263917811e+26   1.8264773643648863e+27   1.1214630237448099e+27   6.2708739095905700e+27   -4.5418384902670766e+27   -8.4659804044145247e+26   -4.8004607635274643e+27   -4.6580263264050413e+27   1.5365174058533990e+27   -1.9427097934980084e+26   1.0512183646730624e+27   1.9938209088363570e+27   1.5702347611262162e+27   -2.2006684747521562e+26   2.1991865235995722e+27   4.6429219717478250e+27   -4.5749690752792690e+27   -7.0759421096835995e+27   -1.4882024648972249e+27   -2.7707846682605436e+27   -2.1930359928351647e+27   3.3431453313324363e+27   1.3351836511615507e+27   -3.1708730097232724e+27   -1.2112783739801588e+27   -1.8211683259838966e+27   -3.5371898586506125e+26   2.0082365434127813e+27   1.0629069381486638e+27   -3.2362001688013507e+27   -1.0140081113710245e+27   -5.0276003398593179e+27   1.1980476084897929e+27   -2.0942977016045604e+27   1.7147330165417368e+27   -2.9143399998258850e+27   -5.1114199360130579e+27   3.1988352843849539e+26   3.5527896432184002e+27   -4.0046989258924084e+27   -3.9536568316649730e+27   3.3636467463297107e+26   -9.3441826354129713e+27   -1.1796882284009859e+27   -1.6882062039759743e+27   5.6003591304870904e+27   2.4690213039247179e+27   3.7453393831126174e+27   2.3239536636397089e+27   6.8572970591608224e+27   5.2389349700553178e+27   5.8654970972570995e+27   -2.9701558226688373e+27   -8.7515646403129154e+27   2.1203836720159075e+27   3.8752170729180475e+27   -3.5622827789369622e+27   -4.2919814495762679e+27   -1.8970271103332513e+27   -1.2870366168518472e+27   -3.3708443923011940e+27   -2.6907450951722347e+27   3.3023858928908473e+27   1.6867730670011253e+27   8.4116442785818037e+25   8.2285650664538970e+26   -1.1424720009763072e+27   1.4965946386060024e+27   -6.4000844707179795e+27   -6.0285372044778811e+27   -1.6239580266099461e+27   -1.0689624660405888e+27   -3.5520273087849671e+27   1.5601988561465741e+26   -3.0761744934338236e+27   1.7855980263828364e+27   8.8835984852539123e+27   1.7810764714627515e+27   2.0327174872421068e+27   -7.0883949413100433e+27   -1.2068661633244762e+27   3.4508682456958059e+27   1.7388071478222984e+27   -1.9221523991914372e+26   3.4746203273949156e+27   -1.1666836903558558e+28   7.1225037175454569e+27   -3.0396656518323009e+27   -1.0566141759050585e+27   -1.9532720473582126e+27   -4.1691196255521017e+27   -2.3638405973862236e+27   -6.6389730426206123e+25   -9.0767052623878407e+26   -1.3254542214430359e+27   2.4404443194997853e+27   -1.6286672562600041e+27   1.1746123527169867e+27   2.3833666389390738e+27   4.5698741416469206e+27   4.6076977375178564e+27   -1.1522814771221248e+27   -2.2557454037200433e+26   4.6678955858389759e+26   2.2041799812439907e+26   -6.5324580344373482e+26   -2.4341302458950264e+27   4.3147793728904344e+27   6.3407302281847083e+26   -5.0671575745792661e+27   9.9079116552725471e+26   -4.7804564511875784e+27   -3.7266302924429361e+27   -6.8808330730567597e+27   -5.2026772292299873e+26   2.0382310891548882e+27   4.0434017523196648e+27   6.5501190731859668e+27   -2.3697689346711487e+26   1.6941606538164763e+27   1.3129902710196343e+27   -5.5611527178888105e+27   2.5432170414060353e+27   -1.1324157026506988e+27   7.2569991031616101e+26   1.9425218183347121e+27   4.5992561788614270e+27   2.5078476203246134e+27   -5.1189140418957804e+26   3.7412383233418176e+27   -5.0690693148292561e+27   -4.9844936432024711e+27   -4.6839451245719397e+27   -1.4008126619978156e+27   -1.0264225633502021e+27   -4.5581939394110377e+26   -1.1878051061793566e+27   1.9134064379254789e+26   -1.9689211106251055e+27   -2.0448872159637898e+27   1.8967265368536903e+27   3.0226960313305046e+27   -4.3913262254255666e+26   9.0473685398973186e+27   2.4194905966319312e+27   4.3037219415915248e+27   -3.5391869887053752e+26   2.1409383948010476e+27   1.4268527617751634e+27   -1.1163373392744972e+27   -2.2580843657110497e+27   -1.9670833355474366e+27   1.9493658172792005e+27   1.5053509738157350e+27   1.5169030370888382e+27   -2.8310899678731516e+27   5.7499098021347783e+27   1.2604977764807540e+27   1.1788959339159457e+27   3.1250346153317308e+27   -4.7346530896609308e+27   -9.1538823482925349e+27   -1.0754330425804745e+27   -1.4319423882318678e+27   2.0610742213184044e+26   3.7267894553141494e+27   5.8735420389837120e+27   3.2047330032611222e+27   2.6774423653892764e+27   2.0848263774771809e+27   -4.0309446582221687e+27   1.7668862954075592e+27   -6.0411156708519053e+26   1.6140985824552876e+27   -4.3846227032447714e+26   1.0435800221714663e+26   -1.7039294498609842e+27   4.1605072178734832e+27   -1.9379482745349558e+27   -7.8182362459701614e+26   -3.3659736629434930e+27   -2.0004889384487484e+27   -3.0763698700886201e+27   1.6848250835568327e+27   2.9964060780663505e+27   4.3997874005111098e+27   2.1634644493923044e+26   -3.5440686378770548e+27   -2.9403387112254535e+27   2.7784913185182792e+27   -9.8062075031852347e+26   2.3386966652708060e+27   -5.7995937548641839e+27   -3.9083497163066463e+27   -1.0816853692138880e+26   1.9174294031759220e+27   -3.3288854818966305e+27   -8.4027123176187987e+27   1.9675657458822150e+27   8.4440877915945039e+26   3.0685083970006646e+27   -1.7290020184981270e+27   -3.1881721332854371e+27   2.1238529169452106e+27   -2.6601529976996805e+27   2.3175889824323141e+27   -3.5303576382739809e+27   -2.7517454939388774e+26   -2.0682070067957836e+27   2.6259911172981043e+27   5.0772071878367340e+27   3.6824260335162474e+27   -7.3674502618640789e+26   -3.5732143903058317e+27   -5.7260687464821280e+27   -3.2441721958317168e+27   -2.9326934775603903e+27   -7.8834353730069810e+26   -2.8886224469778215e+27   -6.3531865208766782e+27   -6.7640468735739379e+26   -1.6747017413242908e+27   -9.6607014622505305e+27   -7.7859311781318162e+27   -3.0190490473665835e+27   -5.1771198500780500e+27   -6.9217761011469266e+27   -1.9776920375100192e+27   6.2408877625050964e+26   -6.4719611518603553e+27   5.3772438044072391e+27   9.1370987532343395e+26   1.2199042680092898e+27   -5.6224988078699899e+27   5.3197246343137447e+27   -1.7535995199756113e+27   8.2368154620049776e+26   4.8361727916952473e+26   -2.9522790577831076e+27   6.9788512092573493e+26   7.3105970353056179e+26   -1.7080345929708389e+27   -1.4215008349394549e+27   -3.3670075256329979e+27   3.8462529243428467e+27   -1.6979633306681574e+26   -8.5253425576410747e+26   4.5507271169351777e+27   2.9728478005145249e+27   2.8133247212729686e+26   1.6396173513058678e+27   3.0230466957858552e+27   3.6157149511272537e+26   -1.5456910688054847e+27   -7.9510410830866081e+26   -2.2537418363709208e+27   -3.6328000777839908e+26   -1.6043471126192211e+27   -3.2377966128183534e+27   -1.1967841065234998e+27   -4.2767459563432979e+27   -5.9218684132083939e+27   -4.3637326098334776e+27   -1.3925028644905832e+27   -3.2176216614213010e+27   -4.5822512925587722e+27   -1.0924216913887210e+26   2.4657605984655885e+27   6.7194537058737308e+26   1.1240625509353752e+27   -6.0128516193861327e+26   -2.0379824427339163e+27   1.6624248005786552e+27   -5.1402274629644467e+27   -2.9767663267852511e+27   -2.7353949417664821e+27   -6.3229722117873395e+26   -5.3583335986564342e+27   -2.2436128265780388e+27   -1.0653599327810606e+27   -2.0567874651488570e+27   -2.3160542777454703e+27   -3.1027225324211264e+27   -5.9182098808597154e+27   -7.3606563453180986e+27   -6.1535048059731272e+27   -4.6846549873366797e+26   -2.1736567040289437e+27   -1.9636098919741756e+26   1.5893557237664443e+27   -1.2339490530254383e+28   -3.5510797131174613e+27   -5.7125926475648139e+27   -8.5575417762353288e+27   3.0918272373360350e+26   1.7531999472533167e+27   -1.2170348498614476e+27   -1.2721469978952636e+27   -1.7656814379266161e+26   3.1185994684506413e+27   -3.8425948619899545e+27   1.4513979425334651e+27   5.1014249714562076e+26   3.2869458545204907e+27   1.1577559317869088e+27   -5.1060102320344113e+27   -1.5272787754292129e+27   -3.0166417016190900e+27   -3.6859691728683468e+27   -3.9031454174341866e+27   -3.6704842248582695e+27   3.7849708149550458e+27   -4.9506732426934336e+27   -3.3750143485881204e+26   3.8104941025220195e+27   5.4931792887478072e+27   4.1680447725914782e+27   3.8243900461240747e+26   2.0273482905904220e+27   1.9063460498208699e+26   -4.2093459280198271e+27   -3.9756872697388866e+27   -4.2157228006550143e+27   -1.0974213463630285e+28   -3.4226078082181342e+27   -7.2370789577775628e+26   1.0928726509493824e+28   -1.3143795141026294e+27   -1.0421990929209227e+27   -3.4589811778769624e+26   -3.5067951994774772e+27   -5.8505022795377338e+27   -1.3719737079636630e+28   -3.0052143521056891e+27   9.8259835874841773e+25   2.3981656729333748e+27   -2.9926977077209380e+27   -9.8262592848935947e+27   -6.6209339613595211e+27   2.8508835500103179e+27   2.0151870136440257e+27   -1.2079066769310584e+27   -7.6071611296729923e+26   -5.2550478287634588e+27   -5.3419628786306783e+27   2.9317833750152172e+27   3.9348224742996387e+27   5.7813812192990393e+27   6.0749418433472345e+27   -1.0411404645695243e+27   -3.5364917407747851e+27   -2.7639347647071462e+27   3.0957430075471686e+27   7.1397028386414517e+26   -2.1250567999714584e+27   -6.5317399040547701e+27   -3.1439087434472014e+27   5.4091711671123083e+27   7.1114535701095005e+27   5.0610859866285397e+27   2.6726920898709467e+27   -2.7832493524767611e+26   1.5452705499810155e+26   -3.0228156674271650e+27   -3.7673305724074931e+27   -7.0575146241274798e+27   -5.5972742556869121e+27   -5.6845574215922980e+27   -5.3885757573396204e+27   7.8829264601539372e+27   4.3185367687125106e+27   -1.7627452535462757e+27   -1.1413200899404514e+27   3.0444915566591652e+27   6.9252790347019859e+27   -2.6889105593567231e+27   1.4445444113848598e+27   -2.4684226553782787e+26   5.1276768901577204e+27   -2.5847910397218576e+27   -8.7771019462525984e+26   5.5395537656891994e+26   -4.8511223056240111e+27   -2.7042500304457648e+27   -3.8453907104925712e+25   1.0074867613787932e+27   2.9498375237850322e+27   2.3704839627385760e+26   -1.6157113945226373e+27   4.4080540639789011e+27   8.1308517004216541e+26   2.9479199901906789e+27   3.9774921608630615e+27   2.1462093384183821e+27   1.3276620386177682e+27   -5.5690009715356713e+27   -1.6423771906056400e+27   -4.2933470171938614e+27   -9.9302440668394768e+27   -4.3096245926621128e+26   1.0524114615140157e+27   -2.7060961166638275e+27   -2.3760447255693829e+27   1.6159495425859501e+27   5.5783802512684253e+27   -6.6117514443049368e+27   -3.1942677685105564e+27   9.8929901037851633e+26   -4.8160053895810746e+27   3.2929530279845793e+27   -3.1662089025854871e+27   5.1484941933820398e+27   9.9759359814898486e+27   3.5599276896869604e+27   -5.6009202632248115e+26   -1.2270800456862067e+27   -4.0955602037120625e+27   2.4287052723340508e+27   5.9778311391305517e+27   3.7099994304283969e+27   -2.3339131827000780e+27   3.3592106732611381e+26   3.4153472858380267e+27   -4.3804663193169577e+26   1.1035022278805554e+28   6.6344898247702284e+25   5.5981639214961793e+27   3.4434610846711153e+27   -2.5744592556659907e+27   2.1340160297146561e+27   9.2832488203023404e+26   -9.7829046483326960e+26   -2.8062861297872611e+26   -3.6917756434092169e+27   -4.8259972980040341e+27   4.0114917552812908e+25   -4.5052806007862417e+26   1.5817373369266845e+26   2.9550499438658329e+27   3.4051725107963125e+27   7.1450339023858222e+27   2.0180370683106821e+27   4.3850352312817856e+27   -1.8196787124686471e+27   2.5000308205997025e+27   3.8320222253172421e+25   -4.7041636708350509e+27   -6.0367513892506245e+27   -3.8684679568490464e+27   -6.1052830959011880e+27   -2.9628818777950959e+26   -2.0983118684992006e+27   1.0360389948116388e+27   3.1272089224299773e+27   -1.2695897570166209e+26   2.0396351109468599e+27   5.5068510716704784e+27   -5.0378385225356825e+27   -1.6240334348189077e+27   3.3297425349631163e+27   2.2004170329929691e+27   -7.1677122058464050e+26   7.7943992600895937e+26   1.6506282533673254e+26   2.5502024115000716e+27   -1.2842908966262276e+26   -1.1256733894870583e+27   -5.4255076352248410e+26   -1.2717594753104693e+27   -2.0453140375756236e+27   4.5612607010866299e+27   -5.0396636213643071e+27   -4.3923893236620196e+27   2.0472432959381770e+27   -2.6300111951883682e+27   -1.7282417642284635e+27   3.8294489215405514e+27   1.7532713760455417e+27   5.1615475353858801e+26   -2.1355819110889662e+27   -3.3586328829901801e+27   1.7931615841384311e+27   -2.9029532166507654e+26   -8.8705754831101390e+25   -1.2345008446241909e+27   -5.9074167364106702e+26   -3.2194514516470015e+27   4.3341690505299435e+27   5.5817093037055180e+27   -3.6266395276502814e+27   -4.6151128525486054e+27   -1.1579622621254985e+26   3.1083878296284442e+27   -1.3296759620477282e+27   1.6553318440295393e+27   -6.9804747383506206e+27   -2.6434947125097932e+27   -1.0687684727834201e+27   -1.2191436259358215e+27   7.3955470861494075e+26   5.2217738965973128e+26   -1.5671284437702702e+27   -2.6760937223743776e+27   -1.2569253442124389e+27   -6.4897023966175970e+27   3.2559103324380336e+27   2.7972224617156535e+27   -4.7268133485839798e+27   -4.5527928546439479e+27   -2.1877846106178867e+27   -2.4819099835312026e+26   7.8757664880081145e+25   -1.8450567796677534e+27   -6.2330495407677290e+27   -7.0061463197610831e+27   -1.9421146876946875e+27   -3.1933978918805279e+27   1.0595451612021869e+27   -1.2239401200312961e+27   1.4006760357353439e+27   7.5421283137991972e+27   -1.1777018642077412e+28   -5.4008346997703457e+27   -3.8640964231996073e+27   -1.9936807775315222e+27   -4.2655167924666601e+27   -1.6775091648085601e+27   -1.2772376325746536e+27   -3.3902326728523314e+27   6.1287082315519301e+26   -1.9666159677387172e+27   3.0816463738014258e+27   -1.5505941161001561e+25   -3.1331836005278907e+27   -7.3269577359943260e+27   -5.9535758888839112e+27   -3.8204978184976581e+27   -3.8069360475196728e+27   4.0509178341656987e+27   2.9235987444840137e+27   1.1606792608689428e+27   -8.6426288613419905e+27   -4.8733178189052259e+27   1.3778255036012731e+27   3.9765545690763107e+26   -2.1299251890628956e+27   -2.6639041850470586e+26   1.9397549300299012e+27   4.8311391978504200e+27   -3.6815441516944018e+27   -3.0707646842342798e+27   -5.6624477981955996e+27   -7.6714633901147933e+27   -2.8569274611492416e+27   -2.9523896715836893e+27   -4.2140948345258914e+27   -2.7493597799792048e+27   -4.2605400863613380e+27   5.8378783261969243e+26   -2.1318128478936401e+27   -2.3474406841392530e+27   2.5261165149249283e+27   4.0015417735792458e+27   1.3195436368853299e