<?xml version="1.0"?>
<VTKFile type="UnstructuredGrid"  version="0.1"  >
<UnstructuredGrid>
<Piece  NumberOfPoints="2534" NumberOfCells="4892">
<Points>
<DataArray  type="Float64"  NumberOfComponents="3"  format="ascii">0 3 0  0 -3 0  6 -3 0  6 3 0  3 -3 0  6 0 0  3 3 0  0 0 0  3 0 0  0 -1.5 0  1.5 -3 0  1.5 3 0  0 1.5 0  6 -1.5 0  4.5 -3 0  6 1.5 0  4.5 3 0  4.25 -1.25 0  1.75 1.25 0  2.25 -1.5 0  4.5 0.75 0  1.541666666666667 -0.2083333333333333 0  3.219827586206896 1.521551724137931 0  1.125 -1.875 0  4.875 1.875 0  0.8702651515151515 0.631628787878788 0  2.25 2.214285714285714 0  3.316176470588236 -1.904411764705882 0  5.214285714285714 -0.75 0  5.03125 -2.03125 0  0.96875 2.03125 0  4.041666666666667 -0.2083333333333333 0  0.8205128205128206 -0.9134615384615387 0  3.942582294752138 2.189194098250713 0  3.061487638533674 -0.968243819266837 0  2.192708333333333 0.4427083333333334 0  4.157850026972511 -2.182329047049442 0  2.331456616463011 -0.5285296485744057 0  3.654761904761905 0.5654761904761902 0  5.25 1.125 0  2.563673341677096 -2.280663329161452 0  5.126674107142857 0.1283482142857142 0  0.75 -3 0  0 -2.25 0  6 2.25 0  5.25 3 0  0.7680051888903191 -0.1384245958639337 0  1.617229471026718 -1.006949429867069 0  4.218940341429579 1.468686552856807 0  3.75 -3 0  2.25 -3 0  0.75 3 0  5.25 -3 0  6 -0.75 0  0 -0.75 0  0 0.75 0  2.25 3 0  6 -2.25 0  0 2.25 0  3.75 3 0  6 0.75 0  1.787573018358365 -2.279142327213878 0  3.195025188237337 2.273430909158844 0  2.528159645294386 1.151699106559287 0  1.041598427383826 1.322848427383826 0  1.520951704545454 0.4634232954545453 0  1.580357142857143 2.325892857142857 0  4.919642857142857 -1.361607142857143 0  4.54981623521892 -0.6483700862895494 0  2.99317863826574 0.6697091957925523 0  3.450169349029507 -0.4574865881858001 0  3.605016126014028 -1.323102984840902 0  2.745144658907412 1.882241931337371 0  0.4898065586600511 1.092777516238393 0  0.5 -1.875 0  1.217028489597945 -2.469323836800685 0  1.659912685567181 -1.604738056701542 0  5.4375 1.6875 0  5.34375 2.34375 0  4.52741779500503 2.384139265001677 0  3.375 -2.514804579549941 0  0.5446428571428571 -2.455357142857143 0  2.766554087216865 -1.745795909102064 0  4.525516559010988 0.1490283123570637 0  3.87554132162248 -0.8280516069565407 0  4.53622906132958 -1.76963146596888 0  0.4243951612903226 1.875 0  0.554851858345021 2.446861709948876 0  5.575604838709677 -1.875 0  5.445148141654979 -2.446861709948876 0  4.875 -2.575604838709677 0  1.440573466105381 1.721823466105381 0  2.193519495405082 1.631799415080963 0  5.472630128027442 -1.330813078900983 0  4.750126894286386 1.343813447143193 0  5.607142857142857 -0.375 0  2.625 2.607142857142857 0  0.3921763197810531 0.375 0  5.60901753622775 0.3750000000000001 0  1.125 2.613454943235572 0  3.701856738980915 1.163867513386733 0  3.736112850688509 1.696746876851408 0  3.519183195491339 0.06065128742606851 0  3.973620778217027 -1.693401606145563 0  0.8125 -1.444978632478633 0  1.256657745408029 -0.6381828923025001 0  0 -1.125 0  5.019997778514942 0.6475044429701156 0  4.125 3 0  1.285569332703024 0.8955310332120207 0  0 -0.375 0  0.4638922275641027 -0.5625 0  2.056635259780241 -0.07226025978024064 0  2.130475508371123 -1.000827820434028 0  2.677484372338113 -1.267299126394495 0  2.848680878891876 -0.4956836878192376 0  4.937901885089369 -0.3340245904575954 0  4.393563081308854 1.919544166973803 0  4.053859126323572 0.2813938488760716 0  1.181051704329518 0.1167440895674965 0  1.971354166666667 2.607142857142857 0  4.875 3 0  2.519350561152006 0.08093582719875507 0  3.139443301924015 -1.442524927271905 0  6 2.625 0  1.849169256239503 1.945480934753207 0  1.867196483071171 0.7892354369530077 0  1.192506522009051 -1.184888428863342 0  3.375 3 0  3.603234392481833 2.536866305538572 0  3.846752908916648 -2.537707634073423 0  2.014339897513945 -1.886932065281681 0  4.038392037966526 0.8363324773944992 0  4.421242701722609 -2.552534687860327 0  3.715389848650903 -2.108856956172843 0  2.985668138820625 1.127780908772207 0  0.4500794934449803 -1.173696061598557 0  3.366760888116476 0.8891914618875614 0  1.869163043700093 -0.6107175804171328 0  2.175114838273305 -2.53928723780967 0  3.014417665538299 -2.241523065744933 0  2.625 -3 0  2.819968145332426 -2.617202329573456 0  5.625 1.3125 0  5.563263538826679 0.814027077653358 0  5.625 3 0  2.550041671270923 0.7074928970804664 0  4.014583091741168 2.59891853892166 0  0.6440729668673318 1.499523832583132 0  5.219449799568244 -1.660557808485412 0  3.474012636702472 -0.9300738420779746 0  0.8125 -2.142857142857143 0  1.875 -3 0  4.945010515846405 2.554471797033147 0  2.611388969012422 -0.8478354915063726 0  3.223746055611014 0.3371683159691745 0  4.843939757110898 -0.9483610977948225 0  4.66556954816842 -2.220888354477256 0  4.125 -3 0  4.448108395110625 -0.2524000502731018 0  5.63671875 2.05078125 0  2.822484133964224 1.491327727709286 0  3.378213092764193 1.903125093887009 0  5.607142857142858 -0.9231200445788541 0  2.12639693023183 1.100450516019641 0  5.625 -3 0  0.375 3 0  0 2.625 0  6 -2.625 0  0.3931307155906299 -0.01856779822591927 0  0.8549199714190221 -0.5218333744252657 0  0.7651723094668359 0.253768144801553 0  1.421989550604507 -2.133299471886336 0  1.582611957351803 -2.615166692128227 0  4.420331038793115 1.133144382396504 0  0.375 -3 0  0 -2.625 0  5.078156723571596 1.54697017071479 0  1.877250715260938 -1.288801575378032 0  2.409169073010687 -1.916147168931784 0  1.146151077069952 -0.268000681695328 0  1.726784828652036 0.1335728643263411 0  2.745628549924675 0.3838821021397905 0  3.011490900297165 2.613625569196862 0  5.62463365164608 -4.137655439684362e-05 0  1.875 3 0  1.125 3 0  6 0.375 0  2.625 3 0  6 -1.125 0  6 -0.375 0  4.875 -3 0  6 -1.875 0  3.375 -3 0  1.125 -3 0  0 -1.875 0  0 0.375 0  0 1.125 0  0 1.875 0  6 1.125 0  6 1.875 0  4.813017731148975 0.9677363687196439 0  2.807371623148303 2.264962208227767 0  0.3692953377255688 0.7436406761680247 0  5.615625 2.615625 0  0.9395725521479794 0.9812935874921043 0  1.390920759130215 1.238984550166515 0  0.9588795022085095 1.672288500195331 0  0.87712392565124 -2.641031728267331 0  0.3665732993114588 -1.532068934251388 0  1.841944504733106 1.591700334213738 0  4.832970185136452 0.3385359233091246 0  4.169083540479082 -0.5746148619765254 0  5.281697083409333 -0.2046640461936881 0  4.072845380968044 1.784516523483641 0  1.293029195762321 -1.543079049035419 0  4.878733886054284 -1.720697370582964 0  3.609167475697567 -1.687579152754035 0  4.836981942878573 2.222259978217028 0  4.204938267037067 -0.9128589669335569 0  5.183079748175263 -1.111742407358677 0  1.469404041858679 2.654509729682302 0  1.22880920402559 2.273525645756405 0  4.566761045622856 -1.414165869120005 0  4.531680518427715 1.606803989975667 0  1.918929241273175 2.27471131819245 0  3.590183783343969 2.184680610175416 0  1.85683899811842 0.4533569963423589 0  1.173935704088662 0.4636872214645547 0  2.116602160898525 -2.207718541460878 0  4.51821874648995 -1.042568353750147 0  2.721551512787618 -0.1859357475290837 0  5.294921875 2.001953125 0  5.288671874999999 2.670703125 0  2.199940744527116 0.7756512213396931 0  4.090519467638897 1.163401080812838 0  2.298177083333333 2.670581371753247 0  2.484362362207526 -2.687319997637033 0  3.300530569898859 1.207053005217563 0  3.936078051808127 -1.362164062673065 0  5.341218841330105 0.5689885832563615 0  4.226314635599414 0.5638853401248238 0  2.524510956818563 1.635483567726497 0  0.3219546452225031 1.389066019009203 0  3.139061555368706 -0.3133905221155423 0  3.145569907612562 -0.6461828528638952 0  3.701427442033566 -0.2272880199383185 0  1.686782510365738 -1.934662341426927 0  2.427696494631844 1.944064773844184 0  3.901817839425732 1.422433381251312 0  2.356489883772755 -0.2025512972825912 0  4.820757576351118 -0.01647699434507374 0  3.064415631228375 1.809719380809516 0  4.643002705009462 2.69782572459795 0  4.31624250429496 2.728112685900672 0  1.520100694408069 -1.314302747998057 0  3.754559308601717 -0.5375020107416889 0  0.25 -2.0625 0  0.8125 -1.826636904761905 0  4.861738621091127 -0.6367294570749906 0  1.545149590740081 2.015832101819233 0  3.857113324620078 0.04127675193819436 0  0.3162874907704933 -0.864918315983958 0  4.21293081604216 2.352874368135467 0  3.123697687162562 -2.708090473740421 0  3.415275466010259 -2.202892416689829 0  3.601103065320932 -2.727566580522146 0  1.558629964945672 -0.5289921609136927 0  3.324859026263307 -1.198136798699183 0  2.424350759683917 -1.092246517929194 0  2.789248065239812 0.8954629970670158 0  0.8882026075771248 2.364936378889839 0  0.8066140242673685 2.679750706449505 0  4.504454978490482 0.4491616076730165 0  4.26881784709759 -0.009649566552704852 0  1.313479173834523 -2.758675889510418 0  1.120577805361368 -2.179971784090952 0  3.734048623985226 0.8602850349907256 0  3.527828882622877 1.432983527791925 0  1.959527908877504 -1.578124930685265 0  0.7602573574724077 1.220872343399509 0  0.6691217533356228 0.8531987603309893 0  1.877213035764122 -2.564340152892596 0  3.304349402914068 2.552016594979913 0  4.285565286275464 -1.569057178671076 0  4.227521511146333 -1.876903861267543 0  5.34375 1.40625 0  5.71875 1.59375 0  1.56245959534423 0.766197796710638 0  0.2458241530773257 2.4375 0  0.2794123857609179 2.138568368155198 0  5.754175846922674 -2.4375 0  5.720587614239082 -2.138568368155198 0  0.6472458227887359 2.124973059628837 0  5.124241021325378 -2.352544055105642 0  5.189172233440652 -2.675873509996353 0  5.364643151640443 -2.12768524739804 0  2.298896485720138 1.348573610321417 0  0.6008689899200503 -2.745193425346304 0  0.307092513690391 -2.651812055231556 0  0.2683745826107009 -2.363146293324415 0  0.5223214285714285 -2.165178571428571 0  0.5169611136983336 2.740349995819724 0  5.607469108596883 -2.699891746740618 0  2.138439274270545 1.947386893596098 0  1.25507379660067 1.953406658386351 0  4.135759889512124 -2.476847355718572 0  2.548249345531056 -1.538893887888457 0  2.771010284190282 -2.05339728351
[...]
<CellData  Scalars="f_26-2"> 
<DataArray  type="Float64"  Name="f_26-2"  format="ascii">-2.6622706556580693e+34   -3.2917174599645052e+34   -4.8937433956063629e+34   -4.2423220094829794e+34   -4.6878675674914830e+34   -8.5923529556235924e+34   -3.1019984509102634e+34   -4.0212456762312124e+33   -3.3521057590858072e+33   -2.6344116932504300e+34   -2.3057530654545531e+34   -4.6744967739673437e+34   -1.7306747304723941e+34   -5.6956992290990732e+34   -4.9112409349277780e+33   -3.5143044024360063e+34   -4.7287861839563704e+34   -1.0749019393614388e+33   -3.4663669109012272e+34   -1.9658675897145971e+34   -5.9014103058173325e+34   -1.3978490750623917e+34   -3.7729085116866218e+34   -1.9588127079404742e+34   -2.6851898526259694e+34   -3.4808970422582487e+34   -6.2059447555982320e+34   -2.1764880967124131e+34   -2.1263448726589035e+34   -3.2181152054828473e+34   -1.5502298136256782e+34   -1.6413949752265014e+34   -2.7425239221492110e+34   -2.6291081227230039e+34   -2.8301758266529234e+34   -3.1718407157362181e+34   -3.9374136067103721e+34   7.6829962063006225e+33   -4.8828500544529592e+34   -3.3828307419731808e+34   -1.3128144255506283e+34   -3.0361688445622304e+34   -2.2173644950927743e+34   1.0519193985516552e+34   -1.1077851554675738e+35   -5.2590595758690347e+34   -6.6693536564624695e+34   -1.7221826232444427e+34   -4.2655009953342312e+34   5.8883243580222421e+32   -4.6200605010666573e+34   -3.2605283241585270e+34   -1.6534010694567062e+34   -3.6148267230610405e+34   -2.9249404498403296e+34   -3.1847154363540023e+34   -4.9127409256394973e+34   -3.6109962323423014e+34   -4.7779303021898916e+33   -4.7617660377437940e+34   -2.0349004969311494e+34   -3.1135729927964510e+34   -4.7732795038345207e+34   -2.8402628914730073e+34   -9.2263250077496820e+33   -3.4781166019213186e+34   -4.9535752123106541e+34   -6.7913770040608027e+33   -1.4026478730689881e+34   -3.6977983933849253e+34   -1.9628908958213208e+34   -1.5898704277574305e+33   -8.8601853833433839e+33   -2.9476442974926457e+34   -2.4550516075041833e+34   -3.6192396485085619e+33   -1.5893462878742929e+34   -3.0269881053505447e+34   -5.5365838919637969e+34   -8.8074484574717892e+33   -1.7785213553379056e+34   -2.5691165295168940e+34   -3.6071575454433147e+34   -5.8290721326289675e+34   -2.1632468082592008e+34   -3.3760156757569901e+34   -1.1375306634253312e+34   -2.8133139914309267e+34   -2.7446510443376992e+34   -2.9622153315522945e+34   -3.4595766177255935e+34   -3.2910576065831963e+34   -6.0621013922802065e+34   -7.1822142399055182e+33   5.9328514992072397e+33   -5.6906711256588203e+34   -2.5779220768052576e+33   -2.3112091110911353e+34   -2.6172839907315266e+34   -1.7971343703205273e+34   -1.6991621562140041e+34   -6.0835797092833186e+33   -1.8313100930693774e+34   -1.4317869959284299e+34   -3.1708299712061064e+34   -5.4245451130439585e+34   -4.4580511066947156e+34   -2.3035084526596055e+34   -4.5905160440864746e+33   -2.0000600758670150e+34   -2.1799313932162895e+34   -1.4196101517427695e+34   -1.5360377473649713e+34   -2.3598804647029531e+34   -2.7283287847235583e+34   -4.9271560434911570e+34   -7.4903237921899409e+34   -1.4137944579869139e+34   -1.6620439292253173e+34   -6.9738750023232787e+34   -4.2922089666754829e+33   -4.0247369387906501e+34   -3.8863827664891119e+34   -1.1639037369860292e+34   -3.0963663405259323e+34   -1.5885215174258741e+34   -9.4272336700280769e+34   -2.9185204710497613e+34   -6.8061662899261320e+34   -1.5561375354071501e+34   -2.4291842349010884e+34   -3.2364289066654539e+34   -3.0747261426608356e+34   -9.1008612573793988e+33   -2.5374378854032549e+33   -1.4808047804982803e+34   -3.4461651185463112e+34   -7.2917827049467838e+34   -9.8298423488067090e+33   -4.0787296875561790e+34   -2.0871617069455878e+34   -1.9338956753979440e+34   -5.4024518997248538e+34   -5.7010497067933545e+34   -6.8981971957506138e+33   -1.6653447677767583e+35   -3.6992256040970081e+33   -4.2294321456563923e+34   -2.6872301423899507e+34   -8.9371441847566317e+33   -1.9825947854882783e+34   -2.4850718550581566e+34   -2.7204503385820885e+34   -3.6131516689488248e+34   -3.1653748260692748e+34   -2.1104267019562870e+34   -3.4613465520343252e+34   3.5239503875974303e+33   -6.0637116478035935e+34   -1.3410226698276969e+34   -5.6827312562313791e+34   -2.4898404854273931e+34   -3.1070361618881125e+34   -5.4431409582821007e+34   -1.4788694614758462e+34   -5.3931879811599716e+34   -2.5955963545643109e+34   -4.5495409896240207e+34   -2.5268398291535843e+34   -2.5526189468334686e+34   -6.8597564514471595e+33   -1.0481351432310544e+34   -3.1953687385872727e+34   -8.8825597350267060e+33   -2.3144938772405383e+34   -7.9917401264204465e+34   -2.7595204593301996e+34   -2.0259519764220469e+34   -3.5445666676858831e+34   -1.2371551049971130e+34   -1.6158892426878894e+34   -4.5802937920013785e+33   -1.2257888723432506e+34   -2.0247004802031640e+34   -7.4229099596718049e+34   -6.5664247039384216e+34   -3.8308665457017317e+34   -3.3819654787370425e+34   2.6453234632826885e+33   -2.0530765634056516e+34   -9.3186438810746321e+33   -3.5059245964568996e+34   -6.2838882209732773e+33   -2.8032409686807901e+34   -5.4419616000598754e+33   -5.2972356860299368e+34   -4.3278709818238396e+34   -3.5788411504074535e+34   -1.2069262156957224e+34   -1.5942911961714365e+34   -3.1046633084562834e+33   -3.3898393048966674e+34   -4.0548323374183933e+34   -2.8569805528202832e+34   -3.9684051995257068e+34   -2.2259386607875292e+34   -8.9425762750382842e+33   -5.9440711320284489e+34   -2.5560927944796564e+34   -3.7593749921504721e+34   4.0050751134336700e+33   -1.6117632205397367e+34   -3.5498944491573717e+34   -4.9998967990141088e+33   -6.5441109925754106e+34   -3.6827056398721037e+34   -5.0975041926436014e+34   -2.0079809871358518e+34   -1.5804428176371524e+34   -6.9325026013703469e+34   -1.2531964764657726e+34   -3.7733013745702674e+34   -6.2545711801563795e+34   -2.8836966349570060e+34   -4.0314460644364505e+34   -4.0399828601580125e+34   -5.3139177560831887e+33   -1.4060967669529425e+34   8.4905740967587972e+33   -2.1341622993020943e+34   5.8202457642402200e+32   -5.8379414885853916e+33   -1.5571607193480468e+34   -1.9082574420569562e+34   -4.7441287434959838e+34   -4.6695501211992330e+34   -3.2652497693418749e+34   -1.9282784150456176e+34   -1.2157072723059747e+34   -1.2114023119245490e+34   -6.4200578840680057e+33   -2.9760726429922638e+34   -4.3151923584239056e+34   -1.4289014586076447e+34   -5.4213865838217752e+34   -1.9519116881763918e+34   -5.5666166537254428e+34   -1.8087429158830714e+34   -9.8503252623848077e+33   4.3070067940213723e+33   -9.1622756260649128e+33   -1.0024693474783399e+34   -3.6454047265932556e+34   -2.5450499770500768e+34   -1.5982354408519222e+34   -1.1649479061079278e+34   -1.4700132090690168e+34   -1.9685646169776126e+34   6.5994679234871431e+33   -2.2614103177209562e+34   -1.3190521839900069e+34   -5.6746184181318626e+34   -1.9607417028115834e+34   -2.9055248786890627e+34   -2.3927602567780027e+34   -3.5944190502668700e+34   -1.2640805376810129e+34   -2.1088741994598925e+34   -4.5718399129303722e+34   -1.9895932208926848e+33   -2.7984061929589160e+34   -4.3569990202621072e+34   -5.2431781039848413e+34   -4.4740516025950261e+34   -2.2349519868864561e+33   -9.0331145552398659e+33   -4.5153937339215712e+33   -3.6871160672161195e+34   -2.0999052391594404e+34   -9.8012386582127924e+33   -2.7042709742161649e+34   -5.1741042232303078e+33   -3.9534817776725659e+34   -2.0883084115094339e+34   -1.1264367193410289e+34   -8.5417421606646037e+33   -3.0323424072995685e+34   -2.9778641760634817e+34   -2.3677596739113253e+34   2.5454012009402369e+33   -3.3321557927196350e+34   -3.6540360611847131e+34   3.6021151111718668e+32   -1.2099519778245207e+34   -1.5325963260728355e+34   -2.7458685997225710e+34   -2.7226652954573374e+34   -6.1698136058223022e+33   -3.1856638782860270e+34   -8.8683110309832156e+34   -4.6225556987357942e+34   -2.6139350402029083e+34   -2.9534867805879867e+34   -1.8458080995577140e+34   -9.5735495069668812e+33   -1.3117414756705843e+34   -5.7092500630394741e+34   -5.9606221753361169e+33   -2.1368232267613626e+34   -1.4294863348887843e+34   -1.8039169471986658e+34   -2.2010384454260064e+34   -4.3175441758828815e+34   -2.1159029364715636e+34   -2.6754546918472982e+34   -1.9157968329715635e+34   -2.4654188453849263e+34   -3.0225848396820830e+34   -1.9314053402794231e+34   -4.6153007834599533e+34   -4.8765822612269040e+34   -1.4754116729187050e+34   -2.5471286183579042e+34   -4.2692242080282908e+34   -1.8108537845638276e+34   -2.5043260403766942e+34   -2.5541322009395790e+34   -3.8223407672309774e+34   -3.5453365005807007e+34   2.5852472494976620e+33   -3.5383716617732785e+34   -2.4152875172904378e+34   -3.6902491156218051e+34   -4.3978379969964515e+34   -2.5167430366053976e+34   -3.9012365302452086e+34   -1.2404618476608093e+34   -1.0430451488473327e+34   -2.2255503136359461e+34   -3.2289510027329409e+34   -8.7322458037628956e+33   -1.6967815213333988e+34   -1.5172496372145230e+34   -1.4312053222113426e+34   -1.2302160460430402e+34   -3.3822078588951297e+34   -1.6121001365910684e+34   -1.0009959034965453e+34   -3.2157755743178899e+34   -1.6311735920474459e+34   -1.6236858106858608e+34   -1.8322154878439579e+34   1.6642168218737707e+34   -4.2304038214263088e+34   -4.7832696098350146e+34   -1.3008306710584299e+34   -2.0078727692818811e+34   -1.2560225794761168e+34   -7.7187975520461645e+33   -1.9297644650926382e+34   -1.2920941827619547e+34   -6.3828943460474644e+34   3.9552957103120306e+32   -2.6268072915231491e+34   -1.1791522814759866e+34   -2.7919462668033271e+34   -4.9356137143587826e+34   -5.8796124383862082e+34   -2.6506048577976194e+34   -5.6144758416535888e+34   -1.5952855276786805e+34   -4.4214219413232701e+34   -1.2150265093918016e+34   -2.3805267541179693e+34   -1.4216985274466583e+34   -1.9527992352888090e+34   -3.1096512483715007e+34   -1.5944891877494179e+34   -4.3910665841820392e+34   -2.1146210843611639e+34   -1.0334349846437184e+34   -8.2613298278593794e+33   -2.3058136856680275e+34   -7.0922199597255149e+33   -2.4722290733480253e+34   8.7900887354286302e+33   -2.9738742319225439e+34   -2.2551905039475991e+34   9.6384297206737791e+33   -3.1537039974784387e+34   -1.2667017524276952e+34   -2.0467491437110165e+34   -2.2495640293120997e+34   -3.6883975965444198e+34   -2.3635113860241536e+34   -1.7572849076331740e+34   6.9571881670444111e+33   -6.6119211013342639e+34   -3.2893239103833101e+34   -2.9439954179905684e+34   -2.9334554007835744e+34   -1.3562627028459935e+34   -5.4793101336990168e+33   -1.6784853680415756e+34   -2.6301986410983185e+34   -6.2627489860600340e+34   -2.7687398713407512e+34   -9.7711534810663741e+34   -2.6211632624295186e+34   -4.7667650328009364e+34   4.5307444534801114e+33   -2.5281002398241521e+34   -2.5149319383721493e+34   -4.8486830049626965e+33   -1.0539244375060540e+34   -3.5536649902491713e+34   -4.8642947643479212e+34   -6.9197689913822677e+33   -9.3883532127998648e+33   -1.5676901527294330e+34   -2.1358722425059748e+34   -3.8459787356366505e+34   -1.8348304907762096e+34   -6.0197264660206492e+34   -1.2216984018705162e+34   -1.4722868581152996e+34   -2.2527336978947722e+34   -6.1964030937693464e+33   5.8923635494867731e+33   -2.8823284106939179e+34   -2.2391396545740569e+34   -2.7407751739697529e+34   -1.5572039778571582e+34   -2.0363613397863542e+34   -1.9148191013002563e+33   -4.3017222769451054e+34   -2.7916353288451065e+33   -8.3714223941365394e+33   -1.7998762098601631e+34   1.0573004619473086e+32   -4.1404199222852113e+34   -3.6894659072231258e+34   -1.5471155449325933e+34   -4.5161652499761749e+34   -4.9400423497392722e+34   -3.2228693954679816e+34   -1.0456241619613414e+34   -2.6618040232982768e+34   -2.2280590428382184e+34   -2.7972261842495560e+34   -1.2168305243777158e+34   -4.9834845691756686e+34   -4.3748843410279677e+34   -3.4325722726233235e+34   -2.9492187489871434e+34   -1.7428044507819266e+33   -4.5408041319192003e+34   -2.5232245590263485e+34   -3.0998891182235873e+34   -2.6617698022998113e+34   -5.2898270127489825e+34   -1.5022891558995398e+34   -1.6252556621965962e+34   -5.1562938795398244e+33   4.5637879582723296e+33   -4.5298593964564260e+34   -2.7841590223861136e+34   -4.6785785143905720e+34   -9.1302712348533174e+34   -3.6054508913897694e+34   -2.2738208748725052e+34   -1.5621201039039313e+34   -7.2596243451458460e+33   -2.5676954335170221e+34   -4.7348463713246381e+34   -1.5584691920767186e+34   -3.2060212215935576e+34   -2.1613945159737398e+34   -2.5320130257778846e+34   -1.4537145909644180e+34   -5.4636965580680418e+34   -3.1454433609492140e+34   -3.1612277445870104e+34   -1.9622514431899890e+34   -2.7943950712049655e+34   -8.0423320022791848e+34   -3.2338409653040032e+34   -2.9033777628756699e+34   -2.0317121819038555e+34   -1.9245427497963721e+34   -2.1040200773312617e+34   -9.6937971331529333e+33   -1.5109711318851255e+34   -6.2657519884944227e+33   -1.0834519916408771e+34   -1.9810181790651023e+34   -4.2865363951616974e+34   3.3466429974386047e+33   3.4151217050902060e+34   -2.4033907923999382e+34   -4.4944854163451669e+33   -2.3976495966134552e+34   -1.9120931901613067e+34   -1.3626682764102713e+34   -3.5385787078768007e+34   -3.2942102295152350e+34   -5.7975073326647491e+34   -8.3662181928678867e+33   -1.8776883229037342e+34   -2.0102003817525578e+34   -7.5615288119570397e+32   5.1060363090936246e+33   -4.4597200507149520e+34   -4.0720476591830026e+33   -1.4138473665849761e+34   -4.2438617478529090e+34   -4.9934478249188768e+34   -4.1110538940498254e+34   -1.5928016289923998e+33   -7.2833962760008101e+34   -2.2721586714075522e+34   -5.5851772610643356e+34   -1.5176450388503079e+33   -7.0468581227242497e+33   -1.8387320487904667e+34   -1.8093909757117867e+34   -4.1946636312554613e+34   -2.4280215277049512e+34   -1.1376569733953611e+34   -1.4315332469317741e+34   -3.3092580444118577e+34   -7.2514127890017229e+33   -8.6048474947730824e+33   5.8731250953850030e+31   6.2892412853637243e+33   -3.3585000539175579e+33   -2.0370221998622550e+34   -3.5911331224023645e+34   -6.9191052912633186e+34   -1.4360016753259320e+34   -1.0035349240083992e+34   -9.1066495528102784e+33   -5.1994124699690541e+34   -3.1927745702882942e+34   1.7815921386543986e+34   -2.6483264822259822e+34   -1.1035342905574699e+34   -3.0833557753846158e+34   -3.4270338438056937e+34   -3.1006980791277628e+34   -3.0715898837599990e+34   -2.5039467264425723e+34   -4.1351430056783641e+34   -2.1498252941229367e+34   -2.6186774427610476e+34   5.3286295758957737e+33   -2.4451688743695924e+34   -2.1560294501357553e+34   -3.1611918970298261e+34   -4.9672226676505776e+34   -1.8606056335542111e+34   -1.5792372803151028e+34   -3.4706316124861872e+34   -1.7865831791276993e+34   -4.1734154023518847e+34   -2.3508616313372417e+34   -3.5409654027878595e+34   -2.0828812968995649e+32   -1.3448874925268796e+34   -1.8545846451440319e+34   -1.4883712412093232e+34   -1.3690256807253389e+34   -1.8673771082787209e+34   -2.2569999167492491e+34   -2.2038874086499449e+34   -3.4943690252189606e+34   -5.1458900605295970e+34   -1.7605068875129092e+33   -3.1964088507267096e+34   -1.4135688404610907e+34   -2.4101206746025101e+34   -3.1555960417952355e+34   -5.3173596969576909e+34   -1.4369938692656028e+34   -4.8402555414100632e+34   -1.6634747738833313e+34   -2.2735460365515739e+34   -6.8300824776025164e+33   1.7104897238645291e+31   -2.0276193407635666e+34   -2.2597760447072391e+34   -4.1253718300611527e+34   -4.4242553455159232e+33   -5.2728751014344498e+33   -9.9481382293057076e+33   -2.4083339037802363e+34   -3.6974989278963235e+34   -7.3903715048690742e+34   -6.3390783846306751e+33   -8.4292417476735771e+33   -2.5994881736193874e+34   -1.7771735117050980e+34   -4.6331543792421253e+34   -1.8490370491997221e+34   -3.1058007749782311e+34   -8.1311551547911058e+33   -5.7725873636802899e+34   -3.3381049618420371e+34   -2.6234753989843885e+34   -3.6176809800271751e+34   -4.2162023049055053e+34   -3.4492120607650588e+34   -1.3793962384276874e+34   -1.8877653923506566e+34   -1.6888404511323115e+34   -2.0598857507967069e+34   -2.3306973654292860e+34   -1.0737707689260018e+34   -1.8254047185125250e+34   -2.5870194089785287e+34   -2.7592913282516255e+34   -3.6732744945793458e+33   -2.9467958365840385e+34   -2.2427280152966850e+34   -4.2651584511585932e+34   -1.7190610491820376e+32   -1.1069717134636293e+34   -2.8649005967525603e+34   -5.6032017727411654e+33   -1.4584545000892646e+34   -3.2126129872302626e+33   -1.3296664733774397e+34   -1.6483106464190522e+34   -3.2316555264903030e+33   -7.8586162899779873e+33   -4.5171407217518341e+34   -2.2479135721889206e+34   -1.6448622601119040e+34   -2.0265839858825096e+34   -2.2397843681911659e+34   -2.8448549758778848e+34   -1.3480072770871185e+34   3.9376658577264455e+32   1.6293029278790551e+33   -1.4854832251625904e+34   -2.2540037859409850e+33   -1.2046767835797405e+34   1.0941990341756518e+33   -2.4666192764995036e+34   -2.1512291493219695e+34   -2.3766576159324537e+32   -1.4045427666195554e+34   -1.9422069037172240e+34   -1.0620643521826244e+34   -2.1757910397236875e+34   -3.6837063617368659e+34   -4.4851740870169536e+34   -1.4594932966218493e+34   -4.7949243147948416e+34   -2.7658201178248747e+34   -1.6729848733961584e+34   -4.2779739002330690e+34   -2.9543427018138436e+34   -3.4463208347539843e+33   -7.2338242293906449e+32   -1.5636283030813408e+34   -3.6651405470240448e+34   -2.2020834063677740e+34   -1.5073207977555281e+34   -2.0455938415910492e+33   -1.0291609080489202e+34   -2.3972812696524992e+34   -1.0301648457485365e+34   -2.3432099677636180e+33   7.5783776626984269e+33   -1.3623017875982778e+34   -2.1622290248611743e+34   -5.4893122010442828e+33   -4.0129004059249013e+33   -3.2282584042649845e+34   2.0376075865201936e+33   -2.2796121144887166e+34   -2.5673852277317830e+33   -2.5599175869318948e+34   -2.0165672990033942e+34   -1.7414469012740816e+34   -1.8272952844651966e+34   -3.6456958124236334e+33   -1.8612947521639413e+34   -5.8275217210334203e+33   1.5407008120080293e+32   2.7221047323775432e+33   5.7033885485293439e+33   -2.9227592013698617e+34   -1.5450432230620641e+34   -1.9658871518082375e+34   -5.2591145645532822e+33   1.1312577373789536e+34   -1.4223802325033694e+34   -5.0738811748677000e+34   -1.8908675141077562e+34   -2.2371957727923820e+34   -2.0816645219861551e+34   9.5547227789173626e+32   -4.3258498333851464e+33   6.5614454965650485e+33   -1.6386749377425743e+34   -1.5786516184757721e+34   -3.2553026080476563e+34   -3.3885248988131128e+34   -2.8625566565176490e+34   -3.9677588362950310e+34   -2.4685665039941564e+34   -2.7682131865897103e+34   -3.3457100231615520e+34   -4.6849883568022915e+34   -3.1132869517020728e+34   -1.5780675428023679e+34   -2.8869939496276564e+34   -3.8506460409218478e+34   -7.9456147312673100e+33   -2.4214287225071060e+34   -1.8582794599794870e+34   -2.6703570338776137e+34   -1.3529303431476040e+34   -5.0338328130258045e+32   -2.9901476330664776e+34   -6.1284840781976452e+34   -2.3016663827029123e+34   -7.4437951810502282e+33   -2.5348797165803581e+34   -3.8400100848788654e+31   -8.7106725685175196e+33   -4.5761745992251758e+33   4.1778627330234048e+33   -8.0042591513812395e+33   -3.2631529818756652e+33   -2.4868826960852417e+34   -2.9258245445897923e+34   -3.2094133659646603e+33   -1.6748829036655111e+34   -3.0518795069869524e+34   8.4015688343269592e+33   2.2853520892818189e+34   -3.1913278420632630e+34   1.9884002005306637e+34   -2.7871305215245725e+34   -3.4604113174846263e+34   -7.2184090637781372e+33   2.4748528569659301e+33   -4.1107349326267896e+34   -1.4388353493116040e+34   6.3791526778819825e+32   -2.8816886740783078e+34   -1.9360768363892716e+34   -3.0986766733544513e+33   -3.9553898983676032e+34   -2.0921208381461032e+34   -4.5538486751874833e+33   -1.2682616215669294e+34   -8.5928598934688155e+33   -1.8734598571144261e+34   -2.0309347589185547e+34   -1.3234247589370949e+34   -3.5423327024295514e+34   -7.2754603538340638e+33   -2.2794475313374000e+33   -3.053309991724692