<?xml version="1.0"?>
<VTKFile type="UnstructuredGrid"  version="0.1"  >
<UnstructuredGrid>
<Piece  NumberOfPoints="2534" NumberOfCells="4892">
<Points>
<DataArray  type="Float64"  NumberOfComponents="3"  format="ascii">0 3 0  0 -3 0  6 -3 0  6 3 0  3 -3 0  6 0 0  3 3 0  0 0 0  3 0 0  0 -1.5 0  1.5 -3 0  1.5 3 0  0 1.5 0  6 -1.5 0  4.5 -3 0  6 1.5 0  4.5 3 0  4.25 -1.25 0  1.75 1.25 0  2.25 -1.5 0  4.5 0.75 0  1.541666666666667 -0.2083333333333333 0  3.219827586206896 1.521551724137931 0  1.125 -1.875 0  4.875 1.875 0  0.8702651515151515 0.631628787878788 0  2.25 2.214285714285714 0  3.316176470588236 -1.904411764705882 0  5.214285714285714 -0.75 0  5.03125 -2.03125 0  0.96875 2.03125 0  4.041666666666667 -0.2083333333333333 0  0.8205128205128206 -0.9134615384615387 0  3.942582294752138 2.189194098250713 0  3.061487638533674 -0.968243819266837 0  2.192708333333333 0.4427083333333334 0  4.157850026972511 -2.182329047049442 0  2.331456616463011 -0.5285296485744057 0  3.654761904761905 0.5654761904761902 0  5.25 1.125 0  2.563673341677096 -2.280663329161452 0  5.126674107142857 0.1283482142857142 0  0.75 -3 0  0 -2.25 0  6 2.25 0  5.25 3 0  0.7680051888903191 -0.1384245958639337 0  1.617229471026718 -1.006949429867069 0  4.218940341429579 1.468686552856807 0  3.75 -3 0  2.25 -3 0  0.75 3 0  5.25 -3 0  6 -0.75 0  0 -0.75 0  0 0.75 0  2.25 3 0  6 -2.25 0  0 2.25 0  3.75 3 0  6 0.75 0  1.787573018358365 -2.279142327213878 0  3.195025188237337 2.273430909158844 0  2.528159645294386 1.151699106559287 0  1.041598427383826 1.322848427383826 0  1.520951704545454 0.4634232954545453 0  1.580357142857143 2.325892857142857 0  4.919642857142857 -1.361607142857143 0  4.54981623521892 -0.6483700862895494 0  2.99317863826574 0.6697091957925523 0  3.450169349029507 -0.4574865881858001 0  3.605016126014028 -1.323102984840902 0  2.745144658907412 1.882241931337371 0  0.4898065586600511 1.092777516238393 0  0.5 -1.875 0  1.217028489597945 -2.469323836800685 0  1.659912685567181 -1.604738056701542 0  5.4375 1.6875 0  5.34375 2.34375 0  4.52741779500503 2.384139265001677 0  3.375 -2.514804579549941 0  0.5446428571428571 -2.455357142857143 0  2.766554087216865 -1.745795909102064 0  4.525516559010988 0.1490283123570637 0  3.87554132162248 -0.8280516069565407 0  4.53622906132958 -1.76963146596888 0  0.4243951612903226 1.875 0  0.554851858345021 2.446861709948876 0  5.575604838709677 -1.875 0  5.445148141654979 -2.446861709948876 0  4.875 -2.575604838709677 0  1.440573466105381 1.721823466105381 0  2.193519495405082 1.631799415080963 0  5.472630128027442 -1.330813078900983 0  4.750126894286386 1.343813447143193 0  5.607142857142857 -0.375 0  2.625 2.607142857142857 0  0.3921763197810531 0.375 0  5.60901753622775 0.3750000000000001 0  1.125 2.613454943235572 0  3.701856738980915 1.163867513386733 0  3.736112850688509 1.696746876851408 0  3.519183195491339 0.06065128742606851 0  3.973620778217027 -1.693401606145563 0  0.8125 -1.444978632478633 0  1.256657745408029 -0.6381828923025001 0  0 -1.125 0  5.019997778514942 0.6475044429701156 0  4.125 3 0  1.285569332703024 0.8955310332120207 0  0 -0.375 0  0.4638922275641027 -0.5625 0  2.056635259780241 -0.07226025978024064 0  2.130475508371123 -1.000827820434028 0  2.677484372338113 -1.267299126394495 0  2.848680878891876 -0.4956836878192376 0  4.937901885089369 -0.3340245904575954 0  4.393563081308854 1.919544166973803 0  4.053859126323572 0.2813938488760716 0  1.181051704329518 0.1167440895674965 0  1.971354166666667 2.607142857142857 0  4.875 3 0  2.519350561152006 0.08093582719875507 0  3.139443301924015 -1.442524927271905 0  6 2.625 0  1.849169256239503 1.945480934753207 0  1.867196483071171 0.7892354369530077 0  1.192506522009051 -1.184888428863342 0  3.375 3 0  3.603234392481833 2.536866305538572 0  3.846752908916648 -2.537707634073423 0  2.014339897513945 -1.886932065281681 0  4.038392037966526 0.8363324773944992 0  4.421242701722609 -2.552534687860327 0  3.715389848650903 -2.108856956172843 0  2.985668138820625 1.127780908772207 0  0.4500794934449803 -1.173696061598557 0  3.366760888116476 0.8891914618875614 0  1.869163043700093 -0.6107175804171328 0  2.175114838273305 -2.53928723780967 0  3.014417665538299 -2.241523065744933 0  2.625 -3 0  2.819968145332426 -2.617202329573456 0  5.625 1.3125 0  5.563263538826679 0.814027077653358 0  5.625 3 0  2.550041671270923 0.7074928970804664 0  4.014583091741168 2.59891853892166 0  0.6440729668673318 1.499523832583132 0  5.219449799568244 -1.660557808485412 0  3.474012636702472 -0.9300738420779746 0  0.8125 -2.142857142857143 0  1.875 -3 0  4.945010515846405 2.554471797033147 0  2.611388969012422 -0.8478354915063726 0  3.223746055611014 0.3371683159691745 0  4.843939757110898 -0.9483610977948225 0  4.66556954816842 -2.220888354477256 0  4.125 -3 0  4.448108395110625 -0.2524000502731018 0  5.63671875 2.05078125 0  2.822484133964224 1.491327727709286 0  3.378213092764193 1.903125093887009 0  5.607142857142858 -0.9231200445788541 0  2.12639693023183 1.100450516019641 0  5.625 -3 0  0.375 3 0  0 2.625 0  6 -2.625 0  0.3931307155906299 -0.01856779822591927 0  0.8549199714190221 -0.5218333744252657 0  0.7651723094668359 0.253768144801553 0  1.421989550604507 -2.133299471886336 0  1.582611957351803 -2.615166692128227 0  4.420331038793115 1.133144382396504 0  0.375 -3 0  0 -2.625 0  5.078156723571596 1.54697017071479 0  1.877250715260938 -1.288801575378032 0  2.409169073010687 -1.916147168931784 0  1.146151077069952 -0.268000681695328 0  1.726784828652036 0.1335728643263411 0  2.745628549924675 0.3838821021397905 0  3.011490900297165 2.613625569196862 0  5.62463365164608 -4.137655439684362e-05 0  1.875 3 0  1.125 3 0  6 0.375 0  2.625 3 0  6 -1.125 0  6 -0.375 0  4.875 -3 0  6 -1.875 0  3.375 -3 0  1.125 -3 0  0 -1.875 0  0 0.375 0  0 1.125 0  0 1.875 0  6 1.125 0  6 1.875 0  4.813017731148975 0.9677363687196439 0  2.807371623148303 2.264962208227767 0  0.3692953377255688 0.7436406761680247 0  5.615625 2.615625 0  0.9395725521479794 0.9812935874921043 0  1.390920759130215 1.238984550166515 0  0.9588795022085095 1.672288500195331 0  0.87712392565124 -2.641031728267331 0  0.3665732993114588 -1.532068934251388 0  1.841944504733106 1.591700334213738 0  4.832970185136452 0.3385359233091246 0  4.169083540479082 -0.5746148619765254 0  5.281697083409333 -0.2046640461936881 0  4.072845380968044 1.784516523483641 0  1.293029195762321 -1.543079049035419 0  4.878733886054284 -1.720697370582964 0  3.609167475697567 -1.687579152754035 0  4.836981942878573 2.222259978217028 0  4.204938267037067 -0.9128589669335569 0  5.183079748175263 -1.111742407358677 0  1.469404041858679 2.654509729682302 0  1.22880920402559 2.273525645756405 0  4.566761045622856 -1.414165869120005 0  4.531680518427715 1.606803989975667 0  1.918929241273175 2.27471131819245 0  3.590183783343969 2.184680610175416 0  1.85683899811842 0.4533569963423589 0  1.173935704088662 0.4636872214645547 0  2.116602160898525 -2.207718541460878 0  4.51821874648995 -1.042568353750147 0  2.721551512787618 -0.1859357475290837 0  5.294921875 2.001953125 0  5.288671874999999 2.670703125 0  2.199940744527116 0.7756512213396931 0  4.090519467638897 1.163401080812838 0  2.298177083333333 2.670581371753247 0  2.484362362207526 -2.687319997637033 0  3.300530569898859 1.207053005217563 0  3.936078051808127 -1.362164062673065 0  5.341218841330105 0.5689885832563615 0  4.226314635599414 0.5638853401248238 0  2.524510956818563 1.635483567726497 0  0.3219546452225031 1.389066019009203 0  3.139061555368706 -0.3133905221155423 0  3.145569907612562 -0.6461828528638952 0  3.701427442033566 -0.2272880199383185 0  1.686782510365738 -1.934662341426927 0  2.427696494631844 1.944064773844184 0  3.901817839425732 1.422433381251312 0  2.356489883772755 -0.2025512972825912 0  4.820757576351118 -0.01647699434507374 0  3.064415631228375 1.809719380809516 0  4.643002705009462 2.69782572459795 0  4.31624250429496 2.728112685900672 0  1.520100694408069 -1.314302747998057 0  3.754559308601717 -0.5375020107416889 0  0.25 -2.0625 0  0.8125 -1.826636904761905 0  4.861738621091127 -0.6367294570749906 0  1.545149590740081 2.015832101819233 0  3.857113324620078 0.04127675193819436 0  0.3162874907704933 -0.864918315983958 0  4.21293081604216 2.352874368135467 0  3.123697687162562 -2.708090473740421 0  3.415275466010259 -2.202892416689829 0  3.601103065320932 -2.727566580522146 0  1.558629964945672 -0.5289921609136927 0  3.324859026263307 -1.198136798699183 0  2.424350759683917 -1.092246517929194 0  2.789248065239812 0.8954629970670158 0  0.8882026075771248 2.364936378889839 0  0.8066140242673685 2.679750706449505 0  4.504454978490482 0.4491616076730165 0  4.26881784709759 -0.009649566552704852 0  1.313479173834523 -2.758675889510418 0  1.120577805361368 -2.179971784090952 0  3.734048623985226 0.8602850349907256 0  3.527828882622877 1.432983527791925 0  1.959527908877504 -1.578124930685265 0  0.7602573574724077 1.220872343399509 0  0.6691217533356228 0.8531987603309893 0  1.877213035764122 -2.564340152892596 0  3.304349402914068 2.552016594979913 0  4.285565286275464 -1.569057178671076 0  4.227521511146333 -1.876903861267543 0  5.34375 1.40625 0  5.71875 1.59375 0  1.56245959534423 0.766197796710638 0  0.2458241530773257 2.4375 0  0.2794123857609179 2.138568368155198 0  5.754175846922674 -2.4375 0  5.720587614239082 -2.138568368155198 0  0.6472458227887359 2.124973059628837 0  5.124241021325378 -2.352544055105642 0  5.189172233440652 -2.675873509996353 0  5.364643151640443 -2.12768524739804 0  2.298896485720138 1.348573610321417 0  0.6008689899200503 -2.745193425346304 0  0.307092513690391 -2.651812055231556 0  0.2683745826107009 -2.363146293324415 0  0.5223214285714285 -2.165178571428571 0  0.5169611136983336 2.740349995819724 0  5.607469108596883 -2.699891746740618 0  2.138439274270545 1.947386893596098 0  1.25507379660067 1.953406658386351 0  4.135759889512124 -2.476847355718572 0  2.548249345531056 -1.538893887888457 0  2.771010284190282 -2.05339728351
[...]
<CellData  Scalars="f_26-2"> 
<DataArray  type="Float64"  Name="f_26-2"  format="ascii">2.4644960314278956e+218   2.5947299761198520e+217   6.6311047004717561e+217   6.5441035885174508e+218   -1.1025264431974660e+219   -2.8798317944965109e+218   -4.2408720564465156e+218   -3.5592176054412273e+218   6.8896092474759384e+217   6.1296943991327508e+218   3.3882990040100578e+218   -3.1331927911952437e+217   8.8801603298067333e+217   -3.1146675734377790e+217   -8.3922234774552916e+217   1.3389352703190902e+218   -6.4563727164723183e+216   1.1486034941464675e+218   1.4799852968049389e+217   7.8738079011356505e+218   -4.7940172257722202e+218   5.6013787594677437e+217   6.7345664703133583e+217   -7.7751011122276987e+218   -4.0709747100133930e+218   4.8495376380738619e+216   6.2937643687701501e+218   4.9797833759391579e+218   -1.4610766847472815e+218   4.4389472124532825e+217   1.0485698607019814e+218   1.7346158072573465e+218   -7.2552919022706466e+217   1.8602247435347300e+216   -3.0944605510218737e+218   6.1281172782960594e+217   1.1205987415039016e+218   9.6895388336618361e+217   -1.1520511019758611e+218   -4.7986110322702260e+218   -1.4942318795861391e+218   -3.0593300722396535e+219   1.4741925802060058e+218   5.3309742457061808e+217   6.1046485179240018e+218   -6.0065517173591472e+217   -1.0895661875090995e+217   -4.9731624614487431e+217   3.5965157175182696e+217   1.4010553402818691e+218   5.2998178132086292e+217   2.2577808758191222e+217   -7.8977466177313244e+218   -4.7731175629411563e+218   -1.1051449480749787e+217   1.8642932449005134e+217   3.7355553521123061e+218   6.3673392429333979e+218   3.8407830293282332e+217   -4.4915419123067611e+218   5.9447833890054160e+218   6.7908593919098732e+218   -3.4671715394975225e+217   -1.1071597745739153e+218   -8.8846756812601872e+217   -1.9677072388754658e+217   -9.6530759008528025e+218   -4.2209321747907149e+218   4.8660299479707765e+218   2.0575885866229609e+218   8.3358894377663049e+217   2.3659523405641719e+217   -1.9238536228753144e+218   -2.1986884674129916e+218   8.5478600395569262e+217   -1.6363319555533551e+218   2.1941235863392335e+218   1.8446504738025598e+218   3.5575549591976288e+218   -8.0160477186103934e+218   -3.8525026888042600e+217   1.6483617400616034e+218   4.2151663677499867e+217   1.7539082563423774e+218   5.5897245955818156e+217   2.0192059933322803e+218   -3.6705261281971335e+218   -4.6701102208677966e+218   1.4654493947437634e+219   -1.9606524953698542e+218   9.3102389551749780e+217   -7.6117496248028264e+217   5.4443340213891461e+217   -2.6728294021060170e+218   1.6880777142896413e+218   -4.1733344813271802e+218   -1.2716686625410787e+218   6.3185447164444448e+218   4.1742981434054287e+218   -1.5949012895031279e+218   -2.8691980585067049e+218   6.6966505212611858e+217   6.7879825271967241e+218   5.0395932371703807e+216   -5.0732844620440979e+218   7.4621897620395869e+217   9.0579966086649324e+217   1.4340270572030353e+218   1.7064286594296851e+218   3.2727587916754921e+218   6.4317590428342418e+218   8.1325585873057979e+218   1.1283754030687609e+218   1.9160971506430081e+217   -9.2000084829273930e+218   3.5608111224214753e+218   7.8671896936622694e+218   -2.4614891800351467e+218   -4.9087478764191587e+218   -3.5395965108769831e+216   -6.7752765761294943e+217   -4.3996466656168550e+217   3.4000228950933043e+218   8.5433588587391959e+217   -1.4994299298340808e+218   5.3625862131476012e+217   -2.8466842031459289e+218   -2.1512589390713120e+217   -1.5038477724779036e+218   6.1218993999728553e+218   -1.7425409148462899e+218   -1.5833240285249282e+218   4.9864670576594269e+218   -6.3515900003579765e+218   -3.6948727496452401e+218   -9.4752778304486044e+217   -6.5321883884291068e+217   -2.1022607934261743e+218   -3.7323453404177177e+218   -8.6934079174281459e+217   -4.8388590341679968e+217   -1.3366727210516992e+218   -2.7539774050449788e+218   4.0993279396353099e+217   1.1625880819346466e+217   6.0719339435163779e+217   3.7586791181401318e+218   2.3891491024932231e+218   -2.5202388060442788e+217   -8.2519458620109449e+216   2.3148581201764280e+218   7.2025073608171963e+217   7.8908373819196610e+218   -7.7476211972687627e+218   6.7674372694283005e+218   -3.0326414714924922e+218   -5.5761757919652447e+217   6.8550032820797884e+218   2.3217552627996776e+218   -1.1126371225953333e+218   1.3319344506650113e+218   7.8416084831898993e+217   -1.0328910071423337e+218   2.1483946178519185e+217   1.9172362535882890e+218   5.3759358396475646e+216   -5.2025576312064184e+218   5.0650656320285226e+218   -3.6054939754445407e+218   1.1439477109522379e+218   1.4765150232142015e+218   1.7532836144585092e+218   2.5292071056580312e+218   -9.5816479544939880e+218   3.6062038388691207e+217   -7.9382211348750879e+217   2.7591261922875961e+218   4.8885445477619323e+218   1.3005748356173895e+218   3.5605126072260326e+217   3.6940112719990638e+217   8.3226887258763121e+217   -6.7168896287008813e+218   6.0957983880713550e+218   6.0619450046804116e+217   9.4290694464395585e+217   9.3232146292546102e+218   -5.8906534011305250e+218   -1.5517079568740312e+218   2.7776842203948709e+218   3.8780502589551882e+217   1.7499069016608428e+218   3.8560061106058354e+218   -1.9665900678593076e+217   -5.4819287794837993e+218   1.3042610880759434e+218   -8.8015391224070527e+217   9.0991655466246416e+217   -9.6277366663253016e+217   2.6676146017216905e+218   -4.0434391741745981e+218   1.1069575117775373e+218   2.5797905062216554e+218   -3.3930347615392476e+218   -6.7754174787916374e+218   6.6232265719656701e+218   -8.2374886209904479e+218   2.5936538158689895e+218   -1.1006749125526578e+219   -1.2236583305069346e+219   -4.7525741605838547e+218   -6.4088372986885263e+217   1.9033556150573601e+217   1.9107255548347912e+218   3.4185324900759688e+218   7.8036233911884317e+216   4.7938821942998452e+218   4.2517810911926928e+218   -1.0132876755248260e+218   -5.5990865731746038e+217   -4.9584588122618126e+218   6.3824228414318588e+217   1.3392487066792903e+218   -1.0744899882260849e+218   -2.9152352937453046e+217   9.7895095185852059e+217   3.7895438831535532e+218   -2.2256420269805021e+218   2.7502859974165495e+218   1.3815854141547149e+218   -3.4914426439075603e+217   -1.5932219661109268e+217   3.1497902764853323e+217   2.2376904701726494e+218   -4.8481729218073374e+216   -8.5991461812341867e+217   -1.9788052590552714e+218   -1.9021646598847615e+216   1.1330686400167261e+218   2.1399149636375914e+217   5.5433044318218684e+216   -9.9929609717733381e+217   3.7744955077250447e+218   -6.7020639962984435e+217   1.3227864238162839e+218   -1.6140197919189048e+217   7.6398101635263109e+218   -5.1752205087584035e+218   2.5639955053286760e+218   -1.1569007036617558e+218   4.0125329001408483e+217   -1.7924645104607116e+218   1.3518913225797699e+218   -1.2398808857995984e+218   -1.4786102970934225e+218   -5.3970732974158975e+218   1.7995820028569739e+218   1.7722504302121964e+218   -3.6606077374104143e+217   2.3182920599333136e+218   -1.8113116621507147e+218   -5.2836960695772804e+216   1.4431303277847591e+217   -3.5381602858298410e+218   -1.8641610285847728e+218   -4.0811049603109894e+217   -1.4315296573736930e+218   1.8977985610714274e+218   3.1579505532762362e+218   4.7431626252020243e+217   -2.3526178378005610e+218   -4.2295414331970566e+218   5.1811140329733551e+218   -1.9140520477412284e+218   -4.1965114870983965e+217   2.1947188305006111e+218   2.3552544629778258e+218   -4.1434123665539504e+218   3.5494057486146378e+218   3.8296500017388651e+217   1.8910943665836892e+218   3.3330829558844874e+218   -2.4963154170766901e+217   -2.2955928224885439e+218   1.2571514041404164e+218   2.2364593119389947e+218   -3.8804427226513141e+218   5.4915980117332018e+217   1.8868240887380727e+218   1.1265135090089224e+218   -5.1807520684583451e+218   -5.8232166815724907e+218   -5.0030111583012605e+218   -3.3840394977584134e+218   2.9840276384921751e+217   4.7522755320965808e+218   -1.8429436735309149e+218   2.7409275302899145e+218   7.0676761521023962e+218   9.7555811906133412e+217   -6.5467840669490750e+217   -1.2333678004982929e+218   6.3145203458412837e+217   2.3857971520806075e+217   4.6843065345489050e+217   -4.1358372777863182e+218   -8.6299335276769686e+217   5.2217003168510481e+216   -4.7957583074301387e+217   1.5275928325143727e+219   -1.0325213977200684e+219   -7.7595499004581441e+218   -3.6480324231747759e+218   -1.2929285429470151e+219   2.7956196554553733e+218   1.1853284083695431e+218   -2.2829629247428269e+218   9.8149447373799522e+216   1.1974217332565457e+218   -1.6450511368744918e+218   6.7174448754077409e+217   8.5437377378979804e+216   1.0020959890893956e+218   2.3184754488909264e+218   1.1906110397699041e+218   2.2819290692427614e+218   2.9622387591577840e+217   1.1310288695878120e+218   -3.8177709092113321e+218   8.1488739991290956e+218   2.3378035844606584e+218   2.2201813026749487e+216   3.1813749426081165e+216   -4.3158502832408827e+217   -6.7504231887089336e+218   -9.3885741707096933e+218   -4.4239951065940716e+217   2.9119831592553921e+218   2.3671225828917409e+217   -2.8077293997364444e+218   3.9240090456391684e+217   -1.3070055102100678e+218   -1.1417374297360498e+218   -3.9623519621088756e+216   -1.2256545011782563e+218   3.1239008895777250e+218   -2.0016631432131143e+218   2.6841157248312952e+217   -1.4738790087035507e+218   2.4676567966825909e+218   4.5332276609481065e+217   -5.1392068155798898e+216   -8.5293322011861057e+217   3.1755803110009931e+218   -1.1329998117158034e+218   -1.5887438372503563e+218   -3.2699382391302524e+218   -1.8077258829295419e+218   8.1303494017862586e+218   -4.5885349617558039e+217   -2.1012773147157934e+217   -7.8914242821215436e+217   1.5509419609142413e+218   -4.7468531013810758e+218   5.1500915960668268e+218   -8.5330093757740816e+217   8.6534824717763230e+218   -3.8403541216776584e+217   4.4951585965910623e+217   1.9777395223727160e+218   -3.0743384091932680e+218   1.4220573360824948e+218   8.9011232445646298e+217   2.0906408564624431e+217   -2.5285891425177172e+218   -4.1752526230061084e+217   -2.2465096958487708e+216   3.3469768906629486e+218   1.3703809973557573e+217   2.7487253713558490e+218   3.4321755886642448e+218   -6.0282357596718756e+218   1.5833529270659307e+218   4.3654505416705449e+218   -1.6027871870547025e+219   -4.6061137123730833e+217   3.5517224838146526e+218   3.1955210323400381e+218   -1.8642636995133299e+218   3.0139216008324339e+218   2.0835338541754701e+218   6.3039109920575806e+217   1.9758102598362563e+218   -3.9551022474841613e+217   5.8617871599147137e+218   1.8514013864175004e+218   -7.2300695540706659e+217   1.6469658119070707e+218   -1.4939917744729131e+218   -2.5121461329225538e+218   4.1224652778776371e+218   9.3762532117025535e+217   4.7349399527875284e+218   6.5744595637939952e+218   1.4898655572821250e+218   -1.7546116814771863e+218   -6.3206835780621037e+217   7.6223168468197031e+217   -3.8472339449287912e+217   -1.4834318840805804e+218   -1.3459950981615392e+219   -1.4132997616397889e+219   -4.8898726421542400e+217   -8.0669207311792993e+218   -2.1407020476561015e+217   -1.7786121949124078e+217   3.6619080541671187e+218   3.6521518174429288e+217   4.7851918495867073e+218   1.1468442485971372e+218   8.4282223065649106e+218   -5.5388093368904166e+218   1.1266446988075219e+218   -2.7248336055457670e+218   6.1173695014308853e+218   3.0069398871580210e+218   1.1489086358830539e+218   -2.9156684070929254e+218   2.6604496893198975e+218   4.5918944658473831e+218   -4.7712101305750389e+218   -1.3777514185456697e+218   1.4340527585665489e+218   3.3361668440733841e+218   -1.3354831475762678e+218   6.4507103518850285e+217   3.5029259718825344e+218   3.2874309610462207e+218   -7.4628858989239505e+217   -3.5817674600908410e+217   -3.9852481534542620e+217   -1.5667890108993325e+218   2.1805787553877435e+219   1.9541782291054439e+218   -1.0694734564931240e+219   -4.3745627376229464e+218   -1.8991759796886468e+218   -2.0000259091470075e+218   -2.9874171211932784e+218   -2.1205431035599880e+218   7.5152162367154226e+218   -2.8797746722724650e+218   -2.0416906405085788e+218   -8.6533821111349119e+217   -1.7734096553091810e+217   8.8741892457929224e+218   -3.4207027325275175e+218   1.3635598944033435e+219   -4.8408252258942276e+218   7.9376565502923430e+215   -2.3726662182315031e+218   1.1247805831204100e+218   -8.3990795787559166e+217   5.9970335565870251e+217   9.2299766504403662e+218   -1.2887896875658196e+219   -1.0784366174086339e+219   -3.3081815954629273e+218   -1.3067301748617806e+218   4.1913588104416117e+217   -1.0557184608087785e+218   -1.2982869982656892e+219   -3.2882330629186709e+218   3.9525946772344702e+218   6.5455858019787598e+218   -5.6745325516329459e+218   2.0673888648624485e+218   -8.9885848524939748e+217   1.1951843160588732e+218   -8.7668337074004701e+217   5.4509965739336957e+217   -2.9974349594508305e+218   -1.0253559667713033e+218   5.3924241333326302e+217   -2.1391175709934971e+218   1.5431100758126823e+217   -1.5874079945478105e+218   1.5211014070276846e+218   1.5783215541439259e+218   -1.9932197765630576e+218   3.9847432724438252e+218   4.4638732748286876e+218   -5.4240486204816288e+217   2.2637633535136064e+219   3.0634714632073599e+218   -1.2241672177524209e+218   1.5553663586935791e+219   -1.3960336797917401e+218   3.5811547712650404e+218   -2.0327634919503228e+219   1.7513110069460540e+219   1.2569759556794316e+219   -1.6578338308586658e+218   6.7948778791551037e+217   -5.8710111341909728e+218   2.6769399881066121e+218   -5.8084325357351633e+217   7.8287513534401683e+218   9.0290565197412015e+218   -2.2398226492755789e+218   -6.5188736335346981e+217   -5.9674111239987732e+217   3.5472636831652587e+217   -2.2455860353512254e+218   -9.2474645965659108e+218   -3.0364059897040153e+218   2.1524842892701067e+218   5.2842762080017330e+217   -6.1435275767405320e+217   -2.7772300713222231e+217   3.7730081288329924e+217   -5.5096427271456601e+218   1.1234132756738361e+219   1.3475157081592005e+218   -7.2740891065251051e+218   2.1682737205069018e+218   3.7907328816119218e+217   -9.5090361442400167e+218   7.8152675478113988e+217   1.6287587150074673e+218   1.6682200932063997e+219   3.5222597324793452e+218   3.8182116691453299e+218   3.4002605113035683e+218   4.2387248925595773e+218   -4.0575619843314355e+218   2.5348022010642943e+218   -1.1938267826796002e+219   8.0626531811787719e+218   -9.2213058108660252e+217   1.3558701995191659e+218   -9.9801728284733107e+217   -3.9797322367642396e+217   3.2863202963921788e+218   2.2448302128398322e+218   9.2398398570995373e+217   -7.6454923756608212e+218   4.4923287346408618e+218   2.3393927289762286e+217   1.2811155788634888e+218   -4.9400285610551958e+217   -2.0718652562236572e+217   -2.5537431424704256e+218   8.4732824490975949e+217   -1.8398402228231650e+218   8.4025750702362001e+217   -9.3932048534931894e+218   1.0724689534455182e+219   9.2111221421191525e+217   1.4211807845127064e+218   -2.6731356285717134e+217   -1.5897332036194744e+217   -2.8853145056211044e+218   -1.3326314640132619e+218   3.6595629259326162e+218   -2.9248258821510099e+218   -1.4825890915341845e+218   1.8610725192763455e+218   2.7614858123881799e+218   3.0970012175860561e+217   -4.9395051172354694e+218   -2.6407893098434274e+218   2.2251795680551508e+217   -2.4279370320800197e+218   -7.5678936204497926e+217   -3.2724338698777566e+217   1.4789415114023973e+218   -1.4066388298514723e+218   1.9597464020322279e+218   2.6536402927094032e+218   1.1454580390408309e+218   2.1010806698442779e+218   5.2649065851157970e+218   -1.5185632036354078e+219   2.6279041285502855e+217   -7.0256489855384521e+217   6.0371378317972218e+216   1.2921138105857330e+218   5.1335174775746351e+218   -8.7127794578769232e+217   1.0397198789826955e+215   5.8690352295857176e+217   -2.2699315232722565e+218   -1.2814800021613475e+216   -6.1587204993087252e+217   -7.9369255808121175e+217   -4.5993414457341857e+218   -1.3414924583007790e+219   -3.3179397840969644e+217   -2.8659464406353149e+218   -3.8926171070946387e+217   -2.4406938484162448e+217   3.7607751572246307e+218   1.4657596479966647e+218   3.9194727291429355e+218   -2.4489523823046620e+218   2.0501672583449069e+218   8.0731042792358519e+217   -9.4662814944009828e+218   2.8175827395813945e+218   1.3236294302031891e+218   -1.1802559568468682e+218   1.7697494212817230e+217   -2.7969964817417842e+218   -8.2782381484932694e+217   -1.6142171468187918e+218   4.2401094986373250e+217   1.0817267867706040e+218   -1.6945747560061121e+219   -1.9769826485507534e+218   1.4709170948717810e+218   4.9962931626917014e+218   -1.8470827496597972e+218   4.4694901849429403e+217   -2.2698628392899947e+217   -1.7975151536889610e+216   -2.8830468351632242e+217   -4.8864610544521619e+218   5.0576195052800546e+218   -5.3610006158344553e+217   -2.4435163884452702e+217   -2.5117653030288839e+217   -4.2791481439575029e+218   1.4338213716617648e+219   4.8752098852704795e+218   1.7022513427919430e+219   2.6336614468199932e+218   4.3308766551334117e+218   1.7227537754657900e+218   8.3760237521495060e+218   -4.1352213177583334e+218   -2.2410055827254977e+218   -6.2794153170434121e+218   -1.9189554920194959e+218   4.6992563892638737e+217   1.9309549591666258e+218   -1.6561458234058106e+219   3.2884127157250307e+218   6.9192089963339186e+217   1.9457720194007234e+218   1.4006848574007947e+218   -2.6720200435696170e+217   -1.1907242784654733e+218   -1.5788582287276346e+218   2.4541819298906145e+218   3.4907632451852601e+218   -2.3629128908603003e+217   1.3966779415327558e+218   -1.9677711292360576e+217   3.0532582351772569e+218   1.3672236210320558e+217   5.7442843327001126e+217   -2.3991756656385396e+218   4.9017381989030475e+216   1.2981754111607925e+217   4.5101735902649935e+217   -2.2483597114154700e+218   -4.5503016420866130e+217   -6.9642384117301579e+217   -1.6886564931794249e+218   -4.7380452356821956e+216   3.1081105864698448e+218   -5.4899607163746816e+218   -2.8129186632618462e+217   7.9087037050732835e+216   -4.5352726004241495e+218   -8.8087912121710134e+218   -4.1149105994616109e+218   -2.0307176199116483e+218   -6.7791901008092055e+217   -2.8241581711403781e+218   -1.4993434041937781e+218   2.1918404439257862e+218   1.3308567713562724e+218   1.8723266871307811e+218   -6.2482564314752695e+218   1.2931154681673084e+218   -4.4667906927093565e+218   -4.0266921523104640e+218   1.4890500035731842e+216   1.7685542555993350e+218   9.1205809655354861e+217   3.4717632080818469e+217   -8.1487094727842731e+217   4.6607876761035157e+218   -2.2945114447207878e+217   3.6116450725859325e+218   -4.6187619961327347e+218   2.9376546020670268e+216   -2.0552366550232441e+218   9.5338259841040051e+217   -6.2561181739409455e+217   -1.6371631957258759e+219   -7.4040022497974387e+218   5.0167868113137178e+218   3.1945421584312430e+218   5.5860471309999598e+218   -2.0471837651749667e+218   -7.8200550671113441e+217   1.0227135858632988e+218   -1.1717499744235082e+218   2.3664225736143730e+217   -3.2507325007367368e+218   2.4561192586828627e+217   3.0723903727769388e+218   -6.7749861223224096e+217   -5.9414650305869952e+218   -4.2531759080762668e+218   2.5018553759834305e+218   1.6284756365035466e+218   2.3499371318046489e+216   1.2361565382940259e+217   7.3272690844402810e+217   -2.6476427666016441e+218   -4.1240969013343965e+218   -2.6602010609371320e+216   3.8457842741795447e+218   -4.8661223987896015e+218   2.6220330827334360e+216   -5.5739395751542823e+217   -2.5520685147228366e+219   6.2116981292826516e+218   -5.1218926487906226e+218   -2.2123210607158379e+218   4.7837918831020449e+218   -1.7785926576738859e+217   1.4053995526524962e+218   -9.9129586721922555e+217   2.0505726478102844e+218   -8.2864463943296818e+217   -6.7858399102684585e+217   -1.3435732686869621e+218   9.1936527560560119e+218   6.5496168269690132e+217   -4.8298698719528155e+217   -6.0134145104815528e+217   1.8634821138478222e+217   1.0219790162237287e+217   -2.3680685113084330e+218   -3.5505004493021936e+218   -1.1497814655871770e+219   1.9148770652350334e+218 