<?xml version="1.0"?>
<VTKFile type="UnstructuredGrid"  version="0.1"  >
<UnstructuredGrid>
<Piece  NumberOfPoints="2534" NumberOfCells="4892">
<Points>
<DataArray  type="Float64"  NumberOfComponents="3"  format="ascii">0 3 0  0 -3 0  6 -3 0  6 3 0  3 -3 0  6 0 0  3 3 0  0 0 0  3 0 0  0 -1.5 0  1.5 -3 0  1.5 3 0  0 1.5 0  6 -1.5 0  4.5 -3 0  6 1.5 0  4.5 3 0  4.25 -1.25 0  1.75 1.25 0  2.25 -1.5 0  4.5 0.75 0  1.541666666666667 -0.2083333333333333 0  3.219827586206896 1.521551724137931 0  1.125 -1.875 0  4.875 1.875 0  0.8702651515151515 0.631628787878788 0  2.25 2.214285714285714 0  3.316176470588236 -1.904411764705882 0  5.214285714285714 -0.75 0  5.03125 -2.03125 0  0.96875 2.03125 0  4.041666666666667 -0.2083333333333333 0  0.8205128205128206 -0.9134615384615387 0  3.942582294752138 2.189194098250713 0  3.061487638533674 -0.968243819266837 0  2.192708333333333 0.4427083333333334 0  4.157850026972511 -2.182329047049442 0  2.331456616463011 -0.5285296485744057 0  3.654761904761905 0.5654761904761902 0  5.25 1.125 0  2.563673341677096 -2.280663329161452 0  5.126674107142857 0.1283482142857142 0  0.75 -3 0  0 -2.25 0  6 2.25 0  5.25 3 0  0.7680051888903191 -0.1384245958639337 0  1.617229471026718 -1.006949429867069 0  4.218940341429579 1.468686552856807 0  3.75 -3 0  2.25 -3 0  0.75 3 0  5.25 -3 0  6 -0.75 0  0 -0.75 0  0 0.75 0  2.25 3 0  6 -2.25 0  0 2.25 0  3.75 3 0  6 0.75 0  1.787573018358365 -2.279142327213878 0  3.195025188237337 2.273430909158844 0  2.528159645294386 1.151699106559287 0  1.041598427383826 1.322848427383826 0  1.520951704545454 0.4634232954545453 0  1.580357142857143 2.325892857142857 0  4.919642857142857 -1.361607142857143 0  4.54981623521892 -0.6483700862895494 0  2.99317863826574 0.6697091957925523 0  3.450169349029507 -0.4574865881858001 0  3.605016126014028 -1.323102984840902 0  2.745144658907412 1.882241931337371 0  0.4898065586600511 1.092777516238393 0  0.5 -1.875 0  1.217028489597945 -2.469323836800685 0  1.659912685567181 -1.604738056701542 0  5.4375 1.6875 0  5.34375 2.34375 0  4.52741779500503 2.384139265001677 0  3.375 -2.514804579549941 0  0.5446428571428571 -2.455357142857143 0  2.766554087216865 -1.745795909102064 0  4.525516559010988 0.1490283123570637 0  3.87554132162248 -0.8280516069565407 0  4.53622906132958 -1.76963146596888 0  0.4243951612903226 1.875 0  0.554851858345021 2.446861709948876 0  5.575604838709677 -1.875 0  5.445148141654979 -2.446861709948876 0  4.875 -2.575604838709677 0  1.440573466105381 1.721823466105381 0  2.193519495405082 1.631799415080963 0  5.472630128027442 -1.330813078900983 0  4.750126894286386 1.343813447143193 0  5.607142857142857 -0.375 0  2.625 2.607142857142857 0  0.3921763197810531 0.375 0  5.60901753622775 0.3750000000000001 0  1.125 2.613454943235572 0  3.701856738980915 1.163867513386733 0  3.736112850688509 1.696746876851408 0  3.519183195491339 0.06065128742606851 0  3.973620778217027 -1.693401606145563 0  0.8125 -1.444978632478633 0  1.256657745408029 -0.6381828923025001 0  0 -1.125 0  5.019997778514942 0.6475044429701156 0  4.125 3 0  1.285569332703024 0.8955310332120207 0  0 -0.375 0  0.4638922275641027 -0.5625 0  2.056635259780241 -0.07226025978024064 0  2.130475508371123 -1.000827820434028 0  2.677484372338113 -1.267299126394495 0  2.848680878891876 -0.4956836878192376 0  4.937901885089369 -0.3340245904575954 0  4.393563081308854 1.919544166973803 0  4.053859126323572 0.2813938488760716 0  1.181051704329518 0.1167440895674965 0  1.971354166666667 2.607142857142857 0  4.875 3 0  2.519350561152006 0.08093582719875507 0  3.139443301924015 -1.442524927271905 0  6 2.625 0  1.849169256239503 1.945480934753207 0  1.867196483071171 0.7892354369530077 0  1.192506522009051 -1.184888428863342 0  3.375 3 0  3.603234392481833 2.536866305538572 0  3.846752908916648 -2.537707634073423 0  2.014339897513945 -1.886932065281681 0  4.038392037966526 0.8363324773944992 0  4.421242701722609 -2.552534687860327 0  3.715389848650903 -2.108856956172843 0  2.985668138820625 1.127780908772207 0  0.4500794934449803 -1.173696061598557 0  3.366760888116476 0.8891914618875614 0  1.869163043700093 -0.6107175804171328 0  2.175114838273305 -2.53928723780967 0  3.014417665538299 -2.241523065744933 0  2.625 -3 0  2.819968145332426 -2.617202329573456 0  5.625 1.3125 0  5.563263538826679 0.814027077653358 0  5.625 3 0  2.550041671270923 0.7074928970804664 0  4.014583091741168 2.59891853892166 0  0.6440729668673318 1.499523832583132 0  5.219449799568244 -1.660557808485412 0  3.474012636702472 -0.9300738420779746 0  0.8125 -2.142857142857143 0  1.875 -3 0  4.945010515846405 2.554471797033147 0  2.611388969012422 -0.8478354915063726 0  3.223746055611014 0.3371683159691745 0  4.843939757110898 -0.9483610977948225 0  4.66556954816842 -2.220888354477256 0  4.125 -3 0  4.448108395110625 -0.2524000502731018 0  5.63671875 2.05078125 0  2.822484133964224 1.491327727709286 0  3.378213092764193 1.903125093887009 0  5.607142857142858 -0.9231200445788541 0  2.12639693023183 1.100450516019641 0  5.625 -3 0  0.375 3 0  0 2.625 0  6 -2.625 0  0.3931307155906299 -0.01856779822591927 0  0.8549199714190221 -0.5218333744252657 0  0.7651723094668359 0.253768144801553 0  1.421989550604507 -2.133299471886336 0  1.582611957351803 -2.615166692128227 0  4.420331038793115 1.133144382396504 0  0.375 -3 0  0 -2.625 0  5.078156723571596 1.54697017071479 0  1.877250715260938 -1.288801575378032 0  2.409169073010687 -1.916147168931784 0  1.146151077069952 -0.268000681695328 0  1.726784828652036 0.1335728643263411 0  2.745628549924675 0.3838821021397905 0  3.011490900297165 2.613625569196862 0  5.62463365164608 -4.137655439684362e-05 0  1.875 3 0  1.125 3 0  6 0.375 0  2.625 3 0  6 -1.125 0  6 -0.375 0  4.875 -3 0  6 -1.875 0  3.375 -3 0  1.125 -3 0  0 -1.875 0  0 0.375 0  0 1.125 0  0 1.875 0  6 1.125 0  6 1.875 0  4.813017731148975 0.9677363687196439 0  2.807371623148303 2.264962208227767 0  0.3692953377255688 0.7436406761680247 0  5.615625 2.615625 0  0.9395725521479794 0.9812935874921043 0  1.390920759130215 1.238984550166515 0  0.9588795022085095 1.672288500195331 0  0.87712392565124 -2.641031728267331 0  0.3665732993114588 -1.532068934251388 0  1.841944504733106 1.591700334213738 0  4.832970185136452 0.3385359233091246 0  4.169083540479082 -0.5746148619765254 0  5.281697083409333 -0.2046640461936881 0  4.072845380968044 1.784516523483641 0  1.293029195762321 -1.543079049035419 0  4.878733886054284 -1.720697370582964 0  3.609167475697567 -1.687579152754035 0  4.836981942878573 2.222259978217028 0  4.204938267037067 -0.9128589669335569 0  5.183079748175263 -1.111742407358677 0  1.469404041858679 2.654509729682302 0  1.22880920402559 2.273525645756405 0  4.566761045622856 -1.414165869120005 0  4.531680518427715 1.606803989975667 0  1.918929241273175 2.27471131819245 0  3.590183783343969 2.184680610175416 0  1.85683899811842 0.4533569963423589 0  1.173935704088662 0.4636872214645547 0  2.116602160898525 -2.207718541460878 0  4.51821874648995 -1.042568353750147 0  2.721551512787618 -0.1859357475290837 0  5.294921875 2.001953125 0  5.288671874999999 2.670703125 0  2.199940744527116 0.7756512213396931 0  4.090519467638897 1.163401080812838 0  2.298177083333333 2.670581371753247 0  2.484362362207526 -2.687319997637033 0  3.300530569898859 1.207053005217563 0  3.936078051808127 -1.362164062673065 0  5.341218841330105 0.5689885832563615 0  4.226314635599414 0.5638853401248238 0  2.524510956818563 1.635483567726497 0  0.3219546452225031 1.389066019009203 0  3.139061555368706 -0.3133905221155423 0  3.145569907612562 -0.6461828528638952 0  3.701427442033566 -0.2272880199383185 0  1.686782510365738 -1.934662341426927 0  2.427696494631844 1.944064773844184 0  3.901817839425732 1.422433381251312 0  2.356489883772755 -0.2025512972825912 0  4.820757576351118 -0.01647699434507374 0  3.064415631228375 1.809719380809516 0  4.643002705009462 2.69782572459795 0  4.31624250429496 2.728112685900672 0  1.520100694408069 -1.314302747998057 0  3.754559308601717 -0.5375020107416889 0  0.25 -2.0625 0  0.8125 -1.826636904761905 0  4.861738621091127 -0.6367294570749906 0  1.545149590740081 2.015832101819233 0  3.857113324620078 0.04127675193819436 0  0.3162874907704933 -0.864918315983958 0  4.21293081604216 2.352874368135467 0  3.123697687162562 -2.708090473740421 0  3.415275466010259 -2.202892416689829 0  3.601103065320932 -2.727566580522146 0  1.558629964945672 -0.5289921609136927 0  3.324859026263307 -1.198136798699183 0  2.424350759683917 -1.092246517929194 0  2.789248065239812 0.8954629970670158 0  0.8882026075771248 2.364936378889839 0  0.8066140242673685 2.679750706449505 0  4.504454978490482 0.4491616076730165 0  4.26881784709759 -0.009649566552704852 0  1.313479173834523 -2.758675889510418 0  1.120577805361368 -2.179971784090952 0  3.734048623985226 0.8602850349907256 0  3.527828882622877 1.432983527791925 0  1.959527908877504 -1.578124930685265 0  0.7602573574724077 1.220872343399509 0  0.6691217533356228 0.8531987603309893 0  1.877213035764122 -2.564340152892596 0  3.304349402914068 2.552016594979913 0  4.285565286275464 -1.569057178671076 0  4.227521511146333 -1.876903861267543 0  5.34375 1.40625 0  5.71875 1.59375 0  1.56245959534423 0.766197796710638 0  0.2458241530773257 2.4375 0  0.2794123857609179 2.138568368155198 0  5.754175846922674 -2.4375 0  5.720587614239082 -2.138568368155198 0  0.6472458227887359 2.124973059628837 0  5.124241021325378 -2.352544055105642 0  5.189172233440652 -2.675873509996353 0  5.364643151640443 -2.12768524739804 0  2.298896485720138 1.348573610321417 0  0.6008689899200503 -2.745193425346304 0  0.307092513690391 -2.651812055231556 0  0.2683745826107009 -2.363146293324415 0  0.5223214285714285 -2.165178571428571 0  0.5169611136983336 2.740349995819724 0  5.607469108596883 -2.699891746740618 0  2.138439274270545 1.947386893596098 0  1.25507379660067 1.953406658386351 0  4.135759889512124 -2.476847355718572 0  2.548249345531056 -1.538893887888457 0  2.771010284190282 -2.05339728351
[...]
<CellData  Scalars="f_26-2"> 
<DataArray  type="Float64"  Name="f_26-2"  format="ascii">5.8598980650250076e+18   -2.6447987679457542e+19   2.9925513976087847e+19   -9.6134566234267341e+18   -1.3098294020201112e+19   1.3941187708657487e+18   9.3576826828232970e+18   1.6649338489777065e+18   -4.5856480822859194e+19   2.0971803245134364e+18   -3.8525870320779121e+18   2.0031361782950896e+19   -3.0051080059571638e+19   1.9192887202929017e+19   4.6381607939398558e+19   -1.6783666622224382e+19   -1.6179955616007434e+19   1.2232639448606515e+19   -7.2512271789688392e+18   2.2929652127607833e+19   1.7882388417897105e+19   -1.2947757037396922e+19   -3.0795325437152166e+19   -3.1311585064727925e+19   -6.2255300222421412e+18   -1.6146227286097611e+19   -6.9182378749851197e+18   1.5105065423735091e+19   5.0457592821469460e+18   -2.0137490729438765e+19   -1.8921411463997993e+19   -4.6770301548758950e+19   -1.7065174094541009e+19   -2.9492743949566595e+19   -1.9070134890776908e+19   1.0113920535681020e+19   -1.0100235545451741e+17   -2.6096988450331459e+18   -2.5408256495504323e+19   1.0309852145297588e+19   6.0805681693426145e+18   8.8208582565554371e+18   3.9635841918668579e+19   3.5228876814937977e+19   7.0116247397076081e+18   2.4404083586110583e+19   2.5616378519738237e+19   -2.8526817172284264e+19   2.6365087549688029e+19   2.4027129191745585e+19   1.8502568830831796e+19   -1.8341995022671514e+18   -1.3902269346518782e+19   1.6835735529547016e+19   5.8643939890664817e+18   2.4071022888020099e+19   6.6639428786921615e+18   2.9327076814965932e+19   -3.3759311666387038e+19   -1.0336600644929098e+19   1.6846487242488414e+19   -4.8914130501721440e+19   7.4384874856198226e+18   6.3830789642036480e+18   -1.3579323595681812e+19   -5.0649465394042460e+18   -5.7755588354118353e+19   -2.5738509849556218e+19   2.3460228939286213e+19   -1.6715079218115547e+19   1.8164119940096471e+19   -6.0310755988021965e+18   -2.5726017151608721e+19   -1.4375219373196788e+19   5.0388419520126925e+18   -7.7371488635890401e+18   9.1104693164126863e+18   1.6491941179784389e+19   -8.1170562823087872e+18   -2.4095423823847842e+19   -6.9556970541190441e+18   -3.4147859314456765e+18   9.0750887495235215e+18   2.9259676739809354e+19   -2.1903545160952455e+19   4.0183915229464117e+19   -7.1958799256632453e+18   -1.0470630846899679e+19   1.4753576285699543e+19   2.6164084050767749e+19   -3.0332829441128174e+19   -4.3133997777997742e+18   -7.7033015887049421e+18   -7.8178784074268826e+17   -6.0470074584442665e+18   -1.5083041078273694e+19   -9.6383347125804503e+18   2.4963003694371684e+19   1.2317805141877062e+19   -3.5465895817844859e+18   2.8230861517092377e+19   2.4601177190000218e+19   -3.9768656014682220e+18   -5.7989773533737370e+18   -1.3143387731072975e+19   -3.8213382752183042e+19   -9.7890411771021025e+18   -5.6697460601283584e+18   5.3634821948518810e+18   1.6283136015238472e+19   4.8960267310926682e+17   1.2185640888199072e+19   -6.7573363951521219e+18   2.0941418602550579e+18   -6.7689691934784381e+19   -2.4618627016228332e+19   1.7552807805230359e+18   5.7530477966134508e+18   -3.8228974477863864e+18   -3.6481135585574965e+19   1.8336020184342313e+19   -8.4441941456945009e+18   1.5085482110869068e+19   -6.3547009878051410e+18   -1.1599361715793373e+19   -2.0982715328512434e+19   1.5384470085496214e+19   8.6845319500104333e+17   -5.3860365623504282e+19   -2.2558915862844441e+19   -1.6414492186676081e+19   -7.1117167185304504e+18   -2.9582284852630098e+19   -1.2165654586435224e+19   -1.2756833937638584e+19   -8.5938112841815974e+17   -6.8535832158395763e+17   -8.3073592022440243e+18   -8.1710034605725071e+18   5.5726930228348938e+18   -5.6425491469073572e+18   1.5618104246425833e+19   3.5976642272263283e+19   2.6981303799884032e+18   -2.5563723627860046e+19   -4.0260563028598574e+18   9.7487383083798303e+18   -2.2718327835380056e+19   -1.9131829171661930e+19   1.1555768976993393e+19   -1.4284109640966349e+19   4.0397325890863657e+18   1.0118610929025010e+19   8.3841226679258419e+18   1.2763716974655066e+19   6.9240349739773829e+18   2.0650057240676819e+19   -4.5219872498003487e+18   1.5005612997493369e+19   1.2122820841142061e+19   -6.2236239233392476e+18   3.7483537042790564e+19   4.0507908402665079e+19   -1.5758665704422511e+19   1.5832711501453847e+19   1.0767374690335982e+19   -1.2937650850308421e+18   -2.0634406030468448e+19   -2.1424314425406943e+19   1.5098852818574487e+18   -3.2420754743942246e+17   -1.2241220413952809e+19   -2.5926343837238714e+19   4.0577098054958797e+18   -1.3016045821468838e+19   -9.2033172641319667e+17   -4.9952603787085685e+19   -2.3221302908557922e+19   -2.9023278265620431e+19   5.4831150025444188e+18   5.6925716274314547e+18   -2.2187850954595774e+19   2.7426488933700874e+19   -9.8004918227799368e+18   -6.2596898331631462e+18   -2.7130691678672620e+18   -1.5816813270847408e+19   -5.4346873308215917e+17   -3.0072547069592424e+19   1.9064846513071680e+18   -7.4438721050460682e+18   -3.4632554525404529e+19   -3.3891278701659865e+19   3.8835376984614453e+19   2.0263200307015328e+19   2.2551174859255386e+19   3.1035151139327114e+18   1.8668438741963624e+19   -1.7081799593334981e+19   -3.8590717036757243e+18   -1.5162368816030341e+19   -4.6473762107651338e+18   1.0313677140177910e+19   1.3883979115987495e+19   6.6004216244457247e+18   1.9830971842772506e+18   -4.5751073176244994e+19   -6.3014913979784614e+17   -4.3751351336286921e+19   -1.7151219005734707e+19   2.0522511656452080e+19   2.8555579942934921e+19   1.1868263280094858e+18   -9.4607840695123333e+18   2.6545607665902191e+19   4.4536073078386150e+18   1.3147017936686152e+19   1.0265390792281889e+19   3.4983414781328683e+19   -2.1546482900149207e+19   -3.4487853737159593e+18   -3.3888299613106135e+19   -2.8949049253843980e+19   8.8542713306079683e+18   -4.8592346211845530e+18   7.5138055594605496e+18   1.0896861662211359e+19   1.4863891157495501e+19   -8.8287542205963533e+17   1.9338365916713431e+19   2.6146629671918039e+19   -2.8118550065866998e+19   -4.2175901589891908e+19   -7.1595783749481370e+18   -1.5925336319002653e+19   -1.3061105877579264e+19   1.8781180198413865e+19   8.8032041903677092e+18   -1.9631121137195790e+19   -9.2489439742686495e+18   -9.8524764257139937e+18   -5.3281151868485069e+18   1.0784679434459062e+19   4.3657535104790313e+18   -1.8308040885217087e+19   -1.9793926053269041e+18   -3.1504366930059911e+19   5.3556901596030280e+18   -1.3198647027990034e+19   1.0791173001453359e+19   -1.2778043536898855e+19   -3.1455333738117595e+19   -1.9442857452116040e+18   1.5558229361564148e+19   -2.9114628567767265e+19   -2.4720306971340120e+19   1.1876295278390021e+17   -5.3143547091499540e+19   -1.1885614826912680e+19   -1.0257881325279468e+19   2.5683155684152115e+19   1.5521323123473531e+19   2.1255725869762257e+19   1.1162059230393498e+19   4.0173997318820798e+19   2.9428101790823776e+19   3.2495882232306835e+19   -1.7512163964423422e+19   -4.6361318162579505e+19   1.3313937570933791e+19   1.7847881904117555e+19   -2.1603200543549465e+19   -1.7919422357935481e+19   -1.1778294483406168e+19   -1.1481769396042951e+19   -2.2828337282220618e+19   -1.4425795739897971e+19   1.8649416424192197e+19   7.6072282956172503e+18   -4.7003725237670195e+17   3.8010704079280916e+18   -6.0094217883576617e+18   6.3853284733546445e+18   -1.2296063452215658e+19   -3.6130315275619717e+19   -1.0179486938017925e+19   -4.9303372908659118e+18   -1.8934069802428957e+19   1.5976165528790047e+18   -2.0654007726727647e+19   1.0840086081630212e+19   4.1362022901647565e+19   5.0913675803766764e+18   1.5639453648068862e+19   -3.7959097803135173e+19   -2.4108593037921894e+18   2.0263263466363470e+19   1.4879504768778154e+19   1.2531007448528018e+18   2.1178992572139024e+19   -7.5038956890273006e+19   4.2199868955203584e+19   -2.1187843878671639e+19   -7.8723890774328893e+18   -2.2312944620756161e+19   -2.3330291875598639e+19   -1.6869310827517794e+19   -5.0102164500940882e+18   -4.6157922806564444e+18   -1.0564957863803339e+19   1.4463440199189119e+19   -9.3766719632596029e+18   5.7115339815972014e+18   1.3044907153723421e+19   1.9330599830272168e+19   2.6552446468939518e+19   -6.7315506259001969e+18   4.4817634497484429e+17   -1.8443161057744531e+17   1.7170978981958339e+19   -5.6782372595197747e+18   -1.5724623078408661e+19   1.9439440152252080e+19   -3.9536211316068070e+18   -3.0709206069807870e+19   6.4592232542957957e+18   -2.9533352155056329e+19   -1.5761923469537450e+19   -4.0394782380113977e+19   2.0914647756052355e+18   9.9873116539222733e+18   1.7512843349961062e+19   3.9959404538163749e+19   -4.0326673892659953e+18   5.6161697358373540e+18   6.4165046244056709e+18   -3.2265989314290893e+19   1.6234721728595096e+19   -5.8963915150520791e+18   3.5820617570315054e+18   8.9064094577143378e+18   3.0204304128422257e+19   1.3519420993453212e+19   -2.2711918278731354e+18   2.4862329048707936e+19   -4.1327205777489002e+19   -2.8884622373860159e+19   -2.3588537762407326e+19   -6.7334629931652526e+18   -4.8844290555219190e+18   -3.7173736447044931e+18   -2.7170554271574006e+18   5.9656826465621719e+18   -8.1186747573896305e+18   -1.4805752584290888e+19   1.3000371411151809e+19   1.9405697946368823e+19   4.8059269846038125e+17   4.6754887753284714e+19   9.7644135840904909e+18   1.9159717796183876e+19   1.0774429252295425e+18   1.1359212136138709e+19   8.5538098565307566e+18   -2.3408469082449971e+18   -1.2913865229074414e+19   -1.2073108604117823e+19   -3.7613959060824591e+18   4.1927995353539835e+18   -2.4327613046223186e+18   -1.7936789800084902e+19   3.7783804352757850e+19   3.2918450451654282e+18   -1.5920019747485606e+18   1.4835391180697571e+19   -3.0152188466862617e+19   -5.5329461804348285e+19   -5.0811613309478502e+18   -6.2889781234283663e+18   9.8718426013980800e+17   1.9705432080672461e+19   3.1087543208158757e+19   1.8177012943777663e+19   1.9172061508866257e+19   8.1523099564732856e+18   -2.3680840769156092e+19   7.4322038883084411e+18   2.4075019572639503e+18   5.8477656609434788e+18   -5.6128642855556813e+18   -1.6036508945589135e+18   -8.7271111959451709e+18   2.5604235421957362e+19   -1.1714904499291480e+19   -5.8250399276391875e+18   -1.1536793026616107e+19   -1.8565911739025699e+19   -1.4272406267033938e+19   7.8961948063484692e+18   1.6984317717503410e+19   2.5920589812544168e+19   1.9313229042221696e+18   -1.8112103951748499e+19   -1.7712228955513500e+19   1.7608064821598228e+19   -7.3061939352640768e+18   8.7773413414485535e+18   -3.4641717898325697e+19   -2.4937422364528910e+19   3.2470611604115072e+18   1.1682742509059430e+19   -2.1241667619494146e+19   -4.3099807019457487e+19   1.0933965076704412e+19   6.5817050043026555e+18   1.3344442063905470e+19   -5.0067960062436065e+18   -1.4818839497899684e+19   6.1407323465992212e+18   -1.3640606260074527e+19   1.5901601758063311e+19   -1.9876377012953752e+19   -7.5333303497687091e+18   -2.0385276670805529e+19   1.5300393587078611e+19   2.3915387446509621e+19   2.3944330433387635e+19   -2.3841885098013865e+18   -1.8490031028833133e+19   -2.9564389466983715e+19   -1.8544965611772211e+19   -2.2265899239779054e+19   -7.8997872897861949e+18   -1.4310963669240283e+19   -4.4466972675239502e+19   2.9331923592447242e+18   -1.2345113028462600e+19   -5.7255095917184344e+19   -3.0942945071471210e+19   -1.2327010908179941e+19   -3.2681944545817420e+19   -3.8678438036592271e+19   -9.8339109323998638e+18   9.1173014256666342e+17   -3.5464935308121887e+19   3.1997952841254097e+19   5.8263834368354447e+18   9.0648222101076265e+18   -2.9596817761623126e+19   3.1165596756482650e+19   -8.1795581898633574e+18   7.5365509163437760e+17   4.3423535199057715e+18   -2.9643505678861378e+19   4.9210966975912387e+18   7.5217980012958577e+18   -9.8628054353468600e+18   -1.4281811848464732e+19   -2.7603457366700749e+19   2.4082748476384694e+19   -1.1747183171066880e+18   -2.4395918060697236e+18   3.1240191541316747e+19   1.2817443674993994e+19   -4.1921805162325033e+18   2.0484299307502567e+19   9.6074616139484017e+18   5.3770412898110751e+18   -9.9995402697027686e+18   -4.2652708141672300e+18   -1.3460308984306285e+19   9.4689969682562867e+17   -5.0692598130001838e+18   -1.6213459885748943e+19   -8.8105848184521083e+18   -2.0277243916556972e+19   -3.2420073199245599e+19   -2.2868360993150407e+19   -7.3749678864666153e+18   -1.7071788293710391e+19   -3.7500032579131802e+19   3.0466494627681147e+18   1.2097335367788898e+19   2.8253876921290388e+18   3.5315921941020877e+18   2.5034866957177247e+18   -1.2226200669762261e+19   9.4500821199462093e+18   -2.9872189619483566e+19   -1.4667336885541364e+19   -1.2725993149551442e+19   -1.1279050214727795e+19   -3.2808342501963215e+19   -1.4865287458570666e+19   -9.1559737994968023e+18   -1.1639419447278662e+19   -1.5971183692096137e+19   -1.7916462131283489e+19   -2.7807089905224679e+19   -4.0357334700432196e+19   -3.1836869735314358e+19   -5.5446175302978611e+18   -1.0021218231503217e+19   3.4136745442497802e+18   6.4256868542425344e+18   -5.1194297424282870e+19   -2.1111719543914693e+19   -2.9380373323793289e+19   -4.4900663418354614e+19   4.4097309645055524e+18   5.9161350155285985e+18   -9.2332402891919749e+18   -7.3662360036430909e+18   -4.6641702055347251e+18   2.1259128650947871e+19   -2.2463195365379371e+19   7.5723821124946893e+18   7.1985943009458934e+18   1.7901067619205378e+19   6.6798545300659528e+18   -3.3795688943399772e+19   -1.1179480038195839e+19   -1.4413784735514282e+19   -1.9356177209802265e+19   -1.7816244615782083e+19   -1.8600550914588643e+19   2.2136699406758425e+19   -3.1499919837889024e+19   -1.7881469454172562e+18   1.7760193741908994e+19   3.4658152838385250e+19   2.4439224951483556e+19   3.9928581478899942e+18   1.7205982393365209e+19   -6.7744575969571963e+18   -2.5271795947527971e+19   -3.0076568864614392e+19   -2.5960981454552449e+19   -6.3716874367144157e+19   -1.9630551246669611e+19   3.4003881119690330e+17   6.7289984329406554e+19   -1.3486329811522099e+19   -5.3220706598959852e+18   -6.0507008183463916e+18   -1.7922415052674761e+19   -3.2439075434626597e+19   -7.6786040797265527e+19   -1.6605462774719269e+19   -1.0458468951800229e+17   1.4261092922123006e+19   -1.9276760471022211e+19   -5.4211209823673901e+19   -3.7615317510036480e+19   1.7958078204973146e+19   1.3121204199429736e+19   -8.9400060099708109e+18   -5.3843878754894008e+18   -2.2762471138378523e+19   -2.6514561339060969e+19   1.9657510599969374e+19   2.5223794397823132e+19   3.4483747875067482e+19   3.8210666374926049e+19   -1.3467189138878401e+19   -3.3888956141459649e+19   -1.0668620546396174e+19   1.9626037234586812e+19   6.5644809007835546e+18   -1.6529953179647248e+19   -3.3055644629413753e+19   -1.4144894614992085e+19   3.6728346099921723e+19   4.5065760133375181e+19   2.9113897148128350e+19   1.8813611075196428e+19   -2.2096615334879849e+18   -4.1350091662746810e+17   -1.7334640584774646e+19   -1.8972429673549406e+19   -2.7669244258011120e+19   -2.8713501713663132e+19   -3.6106910125529985e+19   -3.2004113979082809e+19   4.5142265610732036e+19   2.3979932964430688e+19   -1.5039322023371469e+19   -9.2121220934054932e+18   1.9214488405042606e+19   4.0011118405678457e+19   -1.5457663024070218e+19   1.2691856795824044e+19   -1.4815118785941371e+18   2.8990223075990548e+19   -1.8637630046986199e+19   -1.5120085079855372e+19   2.6827379671469179e+18   -3.0800177196345426e+19   -1.7845577628233327e+19   -4.0110550781261916e+18   5.4264720575173243e+18   1.8378157027781788e+19   -2.8014764263191741e+18   -7.8184870296322007e+18   2.8601901591014724e+19   6.6379737120314358e+18   1.9755722918697112e+19   2.0205705219151344e+19   1.2111407247185011e+19   9.1247698020438579e+18   -2.8161019137747972e+19   -5.9073548554549340e+18   -2.0300031219451105e+19   -5.3178091036110242e+19   -5.0698745321232781e+17   -1.3804711998479882e+17   -1.4963605531605948e+19   -7.5272757971569275e+18   3.7996053353721373e+19   3.9899684795869053e+19   -3.4770590228708495e+19   -2.2255689973802164e+19   7.4163510977715139e+18   -3.0997203270624432e+19   1.4384000345532516e+19   -2.3272635979866812e+19   2.6071673413090599e+19   6.0550479940992401e+19   2.0199631408184803e+19   -3.4936834469107215e+18   -1.5537107023154336e+19   -2.3770545124597670e+19   1.7599525191344826e+19   3.2739225490438197e+19   2.3481154032228221e+19   -1.9464541763743126e+19   0.0000000000000000e+00   1.9322309544359711e+19   -2.6877543711678689e+18   5.3967324226578858e+19   -2.4715400579460818e+18   3.2644369826607223e+19   1.9631018570604315e+19   -1.1836509983158286e+19   4.9661166216717629e+18   5.0031347705874022e+18   -3.3279043063762309e+18   2.0783826709513298e+18   -1.9136618855895294e+19   -2.2872317608092475e+19   -6.0327784735592525e+17   -1.3949214632079428e+19   -8.1587502774941005e+17   1.4775886145394551e+19   2.0271989437849534e+19   4.5196843311077966e+19   1.1187163560289149e+19   3.0207040039234966e+19   2.0100013835072379e+18   1.1717875761437104e+19   -3.7177260079630628e+18   -2.6382150429564596e+19   -3.6739701529422778e+19   -2.6212436067310891e+19   -3.6795189177675305e+19   -2.5911580853891789e+17   -7.8557564111498854e+18   2.4560747375818378e+18   1.7132001558811664e+19   4.8478301649616527e+18   1.3521522903004289e+19   3.4123326441167618e+19   -2.9035295396258111e+19   -1.1065804647942328e+19   1.6802499213715048e+19   1.4913601339440607e+19   -3.7975905767262802e+18   3.5085649934690171e+18   6.8322993540404800e+17   1.4082715083965878e+19   -1.6585768914362747e+18   -4.4835737528665989e+18   -5.7535434402346496e+17   -4.0874043599107579e+18   -1.2783446601144017e+19   2.2058731727815852e+19   -2.5409478734555795e+19   -1.4055278512716012e+19   1.2805114569100704e+19   -1.3882458893027994e+19   -8.1653631159206789e+18   1.4845802839164658e+19   8.0294826568711854e+18   1.0682368310346123e+17   -1.6818815177461850e+19   -2.5612027096657302e+19   1.0656266174968766e+19   -1.0523179109581058e+19   -2.2470918776522931e+17   -8.0747671745133967e+18   5.6220778117699707e+18   -1.8327649225549826e+19   3.2561926047529673e+19   3.1258183850481164e+19   -2.4214925052782825e+19   -2.7726151029031846e+19   -6.4570850521516390e+18   1.9098776550495007e+19   -1.1915812278473435e+19   8.3906083233075405e+18   -3.5626377345496805e+19   -1.1713930474865889e+19   -9.1808079211830364e+18   -1.1847895283432952e+19   8.5646305502057503e+18   1.0942100796237545e+19   -1.0433887331782400e+19   -1.7970278593687392e+19   -2.0933135064241062e+18   -3.3531241855789969e+19   2.0380681972825936e+19   1.7923726625224489e+19   -2.8558732089522635e+19   -2.1431873020648575e+19   -2.2980702279183004e+19   -1.4043990002980272e+19   -4.5922721463748314e+17   -9.2100898949111378e+18   -3.6272505551674929e+19   -4.7612327661636067e+19   -8.4564245507954145e+18   -1.9775315613748642e+19   8.3526010684985620e+18   -4.4962810141439534e+18   7.4616325315145472e+18   3.4959853681367925e+19   -6.5873215938144035e+19   -3.2648859350052667e+19   -2.0717338418759782e+19   -1.0889268672630047e+19   -2.1793971834501599e+19   -7.9389713202728233e+18   -5.1963252605427384e+18   -1.5964702753498300e+19   1.9334440972177539e+18   -1.6347965168079821e+19   1.7493374993695678e+19   8.0869785045840538e+17   -1.4865854370192585e+19   -2.8439711925812421e+19   -3.4605249522350182e+19   -2.3520532144152646e+19   -2.3403673905968214e+19   2.9682576267443868e+19   1.4202195267405933e+19   7.4193630194465188e+18   -5.1058137330433876e+19   -2.9011049328222298e+19   1.6521851144243757e+19   4.1149500437456604e+18   -1.0411108216971653e+19   -1.0207354028490410e+18   3.7674800303955354e+18   2.0836009659839230e+19   -1.8438452548226021e+19   -1.9098202083315438e+19   -3.3351714946603704e+19   -3.8039819167324996e+19   -1.5350313684272157e+19   -1.3898898597393367e+19   -2.7459818812028441e+19   -1.4859097037795938e+19   -2.4713795475669516e+19   -2.4524105299695135e+18   -7.7405680059542702e+18   -1.5610295546536051e+19   1.2171687105989218e+19   2.3254771406887559e+19   9.2748737903510