<?xml version="1.0"?>
<VTKFile type="UnstructuredGrid"  version="0.1"  >
<UnstructuredGrid>
<Piece  NumberOfPoints="387" NumberOfCells="708">
<Points>
<DataArray  type="Float64"  NumberOfComponents="3"  format="ascii">0 3 0  0 -3 0  6 -3 0  6 3 0  3 -3 0  6 0 0  3 3 0  0 0 0  3 0 0  0 -1.5 0  1.5 -3 0  1.5 3 0  0 1.5 0  6 -1.5 0  4.5 -3 0  6 1.5 0  4.5 3 0  4.25 -1.25 0  1.75 1.25 0  2.25 -1.5 0  4.5 0.75 0  1.541666666666667 -0.2083333333333333 0  3.219827586206896 1.521551724137931 0  1.125 -1.875 0  4.875 1.875 0  0.8702651515151515 0.631628787878788 0  2.25 2.214285714285714 0  3.316176470588236 -1.904411764705882 0  5.214285714285714 -0.75 0  5.03125 -2.03125 0  0.96875 2.03125 0  4.041666666666667 -0.2083333333333333 0  0.8205128205128206 -0.9134615384615387 0  3.942582294752138 2.189194098250713 0  3.061487638533674 -0.968243819266837 0  2.192708333333333 0.4427083333333334 0  4.157850026972511 -2.182329047049442 0  2.331456616463011 -0.5285296485744057 0  3.654761904761905 0.5654761904761902 0  5.25 1.125 0  2.563673341677096 -2.280663329161452 0  5.126674107142857 0.1283482142857142 0  0.75 -3 0  0 -2.25 0  6 2.25 0  5.25 3 0  0.7680051888903191 -0.1384245958639337 0  1.617229471026718 -1.006949429867069 0  4.218940341429579 1.468686552856807 0  3.75 -3 0  2.25 -3 0  0.75 3 0  5.25 -3 0  6 -0.75 0  0 -0.75 0  0 0.75 0  2.25 3 0  6 -2.25 0  0 2.25 0  3.75 3 0  6 0.75 0  1.787573018358365 -2.279142327213878 0  3.195025188237337 2.273430909158844 0  2.528159645294386 1.151699106559287 0  1.041598427383826 1.322848427383826 0  1.520951704545454 0.4634232954545453 0  1.580357142857143 2.325892857142857 0  4.919642857142857 -1.361607142857143 0  4.54981623521892 -0.6483700862895494 0  2.99317863826574 0.6697091957925523 0  3.450169349029507 -0.4574865881858001 0  3.605016126014028 -1.323102984840902 0  2.745144658907412 1.882241931337371 0  0.4898065586600511 1.092777516238393 0  0.5 -1.875 0  1.217028489597945 -2.469323836800685 0  1.659912685567181 -1.604738056701542 0  5.4375 1.6875 0  5.34375 2.34375 0  4.52741779500503 2.384139265001677 0  3.375 -2.514804579549941 0  0.5446428571428571 -2.455357142857143 0  2.766554087216865 -1.745795909102064 0  4.525516559010988 0.1490283123570637 0  3.87554132162248 -0.8280516069565407 0  4.53622906132958 -1.76963146596888 0  0.4243951612903226 1.875 0  0.554851858345021 2.446861709948876 0  5.575604838709677 -1.875 0  5.445148141654979 -2.446861709948876 0  4.875 -2.575604838709677 0  1.440573466105381 1.721823466105381 0  2.193519495405082 1.631799415080963 0  5.472630128027442 -1.330813078900983 0  4.750126894286386 1.343813447143193 0  5.607142857142857 -0.375 0  2.625 2.607142857142857 0  0.3921763197810531 0.375 0  5.60901753622775 0.3750000000000001 0  1.125 2.613454943235572 0  3.701856738980915 1.163867513386733 0  3.736112850688509 1.696746876851408 0  3.519183195491339 0.06065128742606851 0  3.973620778217027 -1.693401606145563 0  0.8125 -1.444978632478633 0  1.256657745408029 -0.6381828923025001 0  0 -1.125 0  5.019997778514942 0.6475044429701156 0  4.125 3 0  1.285569332703024 0.8955310332120207 0  0 -0.375 0  0.4638922275641027 -0.5625 0  2.056635259780241 -0.07226025978024064 0  2.130475508371123 -1.000827820434028 0  2.677484372338113 -1.267299126394495 0  2.848680878891876 -0.4956836878192376 0  4.937901885089369 -0.3340245904575954 0  4.393563081308854 1.919544166973803 0  4.053859126323572 0.2813938488760716 0  1.181051704329518 0.1167440895674965 0  1.971354166666667 2.607142857142857 0  4.875 3 0  2.519350561152006 0.08093582719875507 0  3.139443301924015 -1.442524927271905 0  6 2.625 0  1.849169256239503 1.945480934753207 0  1.867196483071171 0.7892354369530077 0  1.192506522009051 -1.184888428863342 0  3.375 3 0  3.603234392481833 2.536866305538572 0  3.846752908916648 -2.537707634073423 0  2.014339897513945 -1.886932065281681 0  4.038392037966526 0.8363324773944992 0  4.421242701722609 -2.552534687860327 0  3.715389848650903 -2.108856956172843 0  2.985668138820625 1.127780908772207 0  0.4500794934449803 -1.173696061598557 0  3.366760888116476 0.8891914618875614 0  1.869163043700093 -0.6107175804171328 0  2.175114838273305 -2.53928723780967 0  3.014417665538299 -2.241523065744933 0  2.625 -3 0  2.819968145332426 -2.617202329573456 0  5.625 1.3125 0  5.563263538826679 0.814027077653358 0  5.625 3 0  2.550041671270923 0.7074928970804664 0  4.014583091741168 2.59891853892166 0  0.6440729668673318 1.499523832583132 0  5.219449799568244 -1.660557808485412 0  3.474012636702472 -0.9300738420779746 0  0.8125 -2.142857142857143 0  1.875 -3 0  4.945010515846405 2.554471797033147 0  2.611388969012422 -0.8478354915063726 0  3.223746055611014 0.3371683159691745 0  4.843939757110898 -0.9483610977948225 0  4.66556954816842 -2.220888354477256 0  4.125 -3 0  4.448108395110625 -0.2524000502731018 0  5.63671875 2.05078125 0  2.822484133964224 1.491327727709286 0  3.378213092764193 1.903125093887009 0  5.607142857142858 -0.9231200445788541 0  2.12639693023183 1.100450516019641 0  5.625 -3 0  0.375 3 0  0 2.625 0  6 -2.625 0  0.3931307155906299 -0.01856779822591927 0  0.7651723094668359 0.253768144801553 0  0.8549199714190221 -0.5218333744252657 0  1.421989550604507 -2.133299471886336 0  1.582611957351803 -2.615166692128227 0  4.420331038793115 1.133144382396504 0  0.375 -3 0  0 -2.625 0  5.078156723571596 1.54697017071479 0  1.877250715260938 -1.288801575378032 0  2.409169073010687 -1.916147168931784 0  1.146151077069952 -0.268000681695328 0  1.726784828652036 0.1335728643263411 0  2.745628549924675 0.3838821021397905 0  3.011490900297165 2.613625569196862 0  5.62463365164608 -4.137655439684362e-05 0  1.875 3 0  1.125 3 0  6 0.375 0  2.625 3 0  6 -1.125 0  6 -0.375 0  4.875 -3 0  6 -1.875 0  3.375 -3 0  1.125 -3 0  0 -1.875 0  0 0.375 0  0 1.125 0  0 1.875 0  6 1.125 0  6 1.875 0  4.813017731148975 0.9677363687196439 0  2.807371623148303 2.264962208227767 0  0.3692953377255688 0.7436406761680247 0  5.615625 2.615625 0  0.9395725521479794 0.9812935874921043 0  1.390920759130215 1.238984550166515 0  0.9588795022085095 1.672288500195331 0  0.87712392565124 -2.641031728267331 0  0.3665732993114588 -1.532068934251388 0  1.841944504733106 1.591700334213738 0  4.832970185136452 0.3385359233091246 0  4.169083540479082 -0.5746148619765254 0  5.281697083409333 -0.2046640461936881 0  4.072845380968044 1.784516523483641 0  1.293029195762321 -1.543079049035419 0  4.878733886054284 -1.720697370582964 0  3.609167475697567 -1.687579152754035 0  4.836981942878573 2.222259978217028 0  4.204938267037067 -0.9128589669335569 0  5.183079748175263 -1.111742407358677 0  1.22880920402559 2.273525645756405 0  1.469404041858679 2.654509729682302 0  4.566761045622856 -1.414165869120005 0  4.531680518427715 1.606803989975667 0  1.918929241273175 2.27471131819245 0  3.526908551984126 2.207147627530056 0  1.85683899811842 0.4533569963423589 0  1.173935704088662 0.4636872214645547 0  2.116602160898525 -2.207718541460878 0  4.51821874648995 -1.042568353750147 0  2.721551512787618 -0.1859357475290837 0  5.294921875 2.001953125 0  5.288671874999999 2.670703125 0  2.199940744527116 0.7756512213396931 0  4.090519467638897 1.163401080812838 0  2.298177083333333 2.670581371753247 0  2.484362362207526 -2.687319997637033 0  3.300530569898859 1.207053005217563 0  3.936078051808127 -1.362164062673065 0  5.341218841330105 0.5689885832563615 0  4.226314635599414 0.5638853401248238 0  2.524510956818563 1.635483567726497 0  0.3219546452225031 1.389066019009203 0  3.139061555368706 -0.3133905221155423 0  3.145569907612562 -0.6461828528638952 0  3.701427442033566 -0.2272880199383185 0  1.686782510365738 -1.934662341426927 0  2.427696494631844 1.944064773844184 0  3.901817839425732 1.422433381251312 0  2.356489883772755 -0.2025512972825912 0  4.820757576351118 -0.01647699434507374 0  3.064415631228375 1.809719380809516 0  4.643002705009462 2.69782572459795 0  4.31624250429496 2.728112685900672 0  1.520100694408069 -1.314302747998057 0  3.754559308601717 -0.5375020107416889 0  0.25 -2.0625 0  0.8125 -1.826636904761905 0  4.861738621091127 -0.6367294570749906 0  1.545149590740081 2.015832101819233 0  3.857113324620078 0.04127675193819436 0  0.2479605082936806 -0.9375 0  4.21293081604216 2.352874368135467 0  3.123697687162562 -2.708090473740421 0  3.415275466010259 -2.202892416689829 0  3.601103065320932 -2.727566580522146 0  1.558629964945672 -0.5289921609136927 0  3.324859026263307 -1.198136798699183 0  2.424350759683917 -1.092246517929194 0  2.746461744851735 0.9398108087856579 0  0.8882026075771248 2.364936378889839 0  0.8066140242673685 2.679750706449505 0  4.504454978490482 0.4491616076730165 0  4.26881784709759 -0.009649566552704852 0  1.3125 -2.75919801263958 0  1.120577805361368 -2.179971784090952 0  3.734048623985226 0.8602850349907256 0  3.527828882622877 1.432983527791925 0  1.959527908877504 -1.578124930685265 0  0.7602573574724077 1.220872343399509 0  0.6691217533356228 0.8531987603309893 0  1.877213035764122 -2.564340152892596 0  3.32172153715047 2.685939810104955 0  4.285565286275464 -1.569057178671076 0  4.227521511146333 -1.876903861267543 0  5.34375 1.40625 0  5.71875 1.59375 0  1.56245959534423 0.766197796710638 0  0.2458241530773257 2.4375 0  0.2794123857609179 2.138568368155198 0  5.754175846922674 -2.4375 0  5.720587614239082 -2.138568368155198 0  0.6472458227887359 2.124973059628837 0  5.124241021325378 -2.352544055105642 0  5.189172233440652 -2.675873509996353 0  5.364643151640443 -2.12768524739804 0  2.298896485720138 1.348573610321417 0  0.6008689899200503 -2.745193425346304 0  0.307092513690391 -2.651812055231556 0  0.2683745826107009 -2.363146293324415 0  0.5223214285714285 -2.165178571428571 0  0.3925308914031174 2.699891746740618 0  5.607469108596883 -2.699891746740618 0  2.138365140930822 1.917102089073091 0  1.25507379660067 1.953406658386351 0  4.135759889512124 -2.476847355718572 0  0.5330865684534913 -0.8980875812659357 0  2.548249345531056 -1.538893887888457 0  2.67686064875775
[...]
<CellData  Scalars="f_26-2"> 
<DataArray  type="Float64"  Name="f_26-2"  format="ascii">1.9475759620232768e+34   1.2470414434801195e+35   1.1378308105942196e+35   2.7429302033780445e+35   5.9874463670660865e+34   9.4522438289900914e+34   -4.6758325861209292e+34   3.2131340393614699e+34   -1.1952578424022550e+33   2.8875271036316235e+33   5.0106451977243157e+34   -1.0623584412879360e+35   -4.1612339851531237e+34   -9.6382079206925619e+34   -7.1174223317373603e+32   -2.4308945731721333e+34   -8.6986952776841411e+34   1.2545216993423537e+34   -1.9903605878350831e+34   -6.0646069002902189e+33   7.6730648653397659e+33   -3.3816768344935182e+34   -2.9339035805723652e+34   9.5438318675235437e+33   2.4314090273547263e+34   -9.6819601100233423e+33   1.5572571884948308e+35   2.1078945053437823e+34   2.7233964254152887e+34   -3.0580471593747469e+33   9.0505310622308683e+33   -5.2538793469725915e+34   -1.2755816141932830e+32   -9.6630514662094199e+34   7.1539003207266289e+34   6.7455346362906383e+34   -2.0904962776414549e+33   5.9723304404760622e+33   -7.7145560156470779e+34   1.8110229714792160e+34   3.5279121872366517e+34   -1.7721143780681276e+33   -5.1146868735609458e+34   -5.5235825794740680e+34   -1.6708722227726071e+35   -7.5723794365747500e+34   -6.6879448219036838e+34   -2.1039592019960978e+36   1.1533049352300223e+35   -9.5069923452565054e+34   1.0060724085596252e+35   -1.5505513026593026e+35   9.0271100599878618e+34   1.7871244273002279e+34   7.4238289151862713e+34   6.5555314294226515e+34   -1.1877857547640116e+35   -5.3874908701871041e+34   -3.0720056040003881e+33   -3.6970081240906544e+33   5.3875385816437736e+33   8.4944611973020934e+33   -5.1928868072292256e+33   -1.8217649878236637e+34   3.5953159859188872e+35   -6.6743323283338042e+35   4.7953918142643843e+33   -2.6967171861080974e+35   -1.5043846113985474e+34   3.9190897747201433e+34   -1.8870562504086635e+34   -7.4361126232216240e+34   2.4774859926294504e+34   2.9151012814000431e+34   -1.3360213654305958e+34   -3.8289595808585690e+34   9.6451305974182095e+34   5.7596353961829999e+33   -3.2101056743897304e+34   -6.4382273876716432e+32   -6.5047791385217057e+33   -3.6608416359508532e+33   -7.1383357429064301e+33   1.5194983027020818e+34   1.2963509657615698e+34   2.4924246821434400e+34   -9.5790708903603000e+33   2.0401256551599158e+33   -1.3418799877412834e+34   -2.4912872580040897e+34   6.2844217224591639e+33   -4.8057784622491646e+34   -1.8223354608843493e+34   4.1344689070775701e+33   1.2057823724210788e+34   1.0261555046199604e+34   -2.0530735923255339e+34   -2.9283931457122442e+34   -1.6086958804020003e+36   7.1299292125323733e+34   6.5383438953115979e+34   2.0691137563100260e+35   7.2535880906779864e+34   9.7078912203375735e+34   -2.8930358260596653e+34   -1.4642368483704267e+35   2.5389345324674157e+36   -3.9522931878719485e+34   -6.1763647471990727e+34   2.7807632388736149e+34   4.4620049498895717e+34   -4.4886305403497679e+34   -3.7748420718136847e+34   -1.2165952193814178e+34   -9.1764023741743652e+33   2.8286295651587995e+33   1.7900104156326478e+33   -2.3537910009806488e+34   -5.6504158977654797e+33   4.8474935346904970e+33   2.0233532278058794e+34   -1.9607176478588601e+33   -2.9815100808943658e+34   4.9253956480732438e+33   1.3924199496565493e+33   -2.0279969963334610e+33   -4.0465538718376002e+33   4.1905346110980830e+35   -5.6302283141321562e+32   -7.0583324223589891e+34   -1.3503394289890965e+35   3.3012386925094889e+34   2.6265802122952040e+35   -1.8205491362127502e+34   -2.6044735815230243e+34   -3.1761267368012535e+34   5.8402771877342171e+35   1.8515551938762795e+35   -3.1340489612355410e+34   -5.1788594897572883e+34   -4.3903901057895890e+34   -5.0061520964286649e+34   -3.5374499075065383e+34   -1.3531973096881814e+34   4.3552168245358404e+33   -9.3953451769899596e+32   1.2745820026484457e+35   6.1689512788874249e+34   1.6373948676279224e+33   6.2410956589086333e+34   -6.5119647713066851e+34   -1.7003253570049706e+35   -3.8459911694597493e+34   -6.2187479502569843e+34   1.2394064966658563e+33   -4.7871706628776715e+33   1.7942623915945062e+34   2.0848884182649210e+33   -7.9994576659818702e+35   -1.2185837333344807e+35   -1.1799419343105551e+36   4.1118977572222217e+34   2.1954404637049168e+34   3.0414843938341754e+34   3.3551025540472168e+34   2.8214317453365694e+34   2.5024483377918106e+34   4.2613868046309502e+34   9.5377749626034845e+33   5.0335377184586371e+33   -2.4750427793554612e+34   -3.1516468485304847e+34   -1.4849522062515314e+35   -1.5739746045455658e+35   -3.0303855279662232e+34   -1.6522050464420849e+34   3.6320815054365528e+34   5.9752369866876461e+34   4.1351594582119577e+34   2.0537019772562756e+35   1.1847908639213060e+36   2.0047704538336061e+35   3.1559250618765040e+33   -5.5422574076147644e+33   6.8964198557622299e+33   1.9761413318324994e+34   4.2863488257039017e+34   -1.1529027242322060e+35   -8.7327520878929489e+33   -2.2437017958155977e+33   -1.3322463271169401e+34   -1.2473156341653950e+33   7.2425211475845493e+34   8.5108375886393342e+34   5.1172478327919587e+34   6.5625653319891278e+34   8.4701381060043492e+35   1.4673184658689420e+35   5.9364171697240539e+33   5.2855698595087756e+34   5.5860670695119597e+34   -5.0936814587056943e+34   -6.0237178509783711e+34   -6.6111467592154620e+34   -3.7353926418609151e+34   3.3165316612609859e+33   7.7020669796114821e+33   -2.6424995184363030e+34   -1.8129959133054091e+34   3.1775510654788864e+34   6.7038197705190723e+34   -2.4021575045027270e+34   -2.3231781210957528e+34   2.9821851900820328e+34   4.0690061555703155e+34   -1.5028032079976659e+34   2.5969668265539876e+34   1.9387189803004066e+34   -7.2921186955354089e+34   -4.6926136250968969e+34   -3.7404069172273105e+35   -5.9357525543217372e+35   1.3496948032542395e+36   1.0862532942470779e+36   -1.3640944569689541e+34   1.7413857258883411e+36   1.7691961261755525e+36   -1.8193046347731934e+33   -7.9877553619232263e+33   1.5820761072918177e+36   7.7058258444113165e+35   -2.2760498208547430e+34   6.0038566881581032e+33   3.6304117433269051e+32   3.1985659809466169e+33   1.4236736262058619e+34   1.5605967209820807e+34   2.4027182810645493e+35   -3.7218526126829490e+34   -9.1596437206384821e+35   -1.6825714637987479e+36   -1.9702937124767587e+35   -2.1764587343630369e+35   5.1451690693065634e+34   3.9462529041215320e+34   -1.8316252271866433e+34   1.7429251904753772e+33   -1.7937261013391190e+33   -1.1326132601462979e+34   -2.4480901959012315e+33   8.5643622051232317e+32   -2.6879917076824374e+35   -2.7700490727387524e+34   -2.7411101454652826e+34   -1.0719602286609315e+34   1.4480664385615929e+36   -6.5290650018921494e+33   -1.8769264201358881e+34   -2.2176986520166702e+34   -3.5104489275605569e+34   1.5855928173041136e+34   -2.0648258371271584e+34   -1.0016735642466582e+34   3.4502785208706301e+33   -4.4926273438633505e+34   -1.0793924916010749e+35   -1.8673748434852566e+34   7.8720204985413561e+34   -1.6349609994942818e+34   -2.6264711372000250e+34   -3.3307228579445829e+34   7.5181893919977588e+33   -4.2156745982000148e+35   -1.3375275192018085e+34   2.3412971444116466e+34   1.9593276959495687e+34   -1.4092061192220257e+35   4.1286614239019133e+34   1.1743118649290832e+35   1.6207688887131428e+35   -4.2962427431848132e+35   -3.1668599842484981e+34   -6.7597373968196021e+34   -6.5537391575597928e+34   -3.8146441977392117e+36   -1.6646155712448989e+36   -3.7105385835550548e+36   -2.1952330717645408e+35   -5.4398682588431596e+34   -1.9786574554288923e+35   8.2475053567850827e+34   1.1287191444390579e+35   3.0603135781579099e+34   2.4052367266210936e+34   4.7188310986272739e+34   2.3055179148852741e+34   2.3290884068636234e+34   3.0400685284908392e+34   -4.0305213491424074e+33   -9.4352428340822170e+33   6.4786406103331607e+35   2.9288077008970313e+35   6.5587212386169932e+33   8.0704109101686519e+35   5.1736277124646812e+34   3.2981382373304565e+35   5.9246834559133183e+34   8.0623224589211787e+34   4.1195150750281260e+35   1.1046044877813610e+36   3.2805733946470595e+34   6.3580985009076582e+35   6.3071194270515827e+34   1.6568949555229304e+35   3.2797319950209098e+35   2.8338976683301023e+35   -7.5265011835755502e+34   -5.1003068895716198e+35   2.8474559359520431e+34   4.8790744913395338e+34   -7.5724590308777347e+33   -3.3895014842770143e+35   -1.6478184722314043e+35   -3.1058475912250435e+36   -6.4243070062028904e+35   -7.4693636538493210e+35   -7.1660552994170290e+35   -9.2511755550590128e+34   -1.8357428083614997e+34   -1.8797524707310661e+35   -3.5058089650569527e+34   -6.0920481672127573e+34   6.0331058477963886e+35   1.4278986141099151e+36   1.3923474175882152e+36   6.9748347135801816e+35   -9.1958631636725513e+34   -7.7340402948094566e+34   -1.5570262123640570e+34   -1.4074671142385131e+34   -5.1693842132800186e+35   -2.4187897530651035e+35   2.0761582877621799e+36   1.0324060418709553e+36   1.3009922405286484e+34   5.0385970802020320e+33   1.5721948613470409e+33   2.4055176367435849e+33   3.8765299129564331e+33   3.2664991329785864e+33   -1.7552613427841110e+36   -8.1829792344296681e+35   -1.0586385265467098e+36   -5.1424474382031987e+35   -5.3859446961837978e+33   -6.7246263336899348e+33   -4.4333902836680568e+34   -3.1389001343108332e+34   -1.7399143946650624e+34   -2.0547768121141704e+34   2.7909160695524454e+34   -1.7155201812031198e+34   -4.9912789504817400e+34   -8.5336149447710091e+34   1.3224112518229627e+35   1.7609282645334962e+35   -3.7162051642069451e+33   9.8357328114656582e+32   1.6553786258428807e+34   1.8439267072765749e+34   -1.7090065432682846e+35   -1.8350452474645629e+35   -9.0898786051381141e+33   3.5776794860209477e+33   -2.0858413224027569e+34   -1.2675481313118911e+34   4.7055744925009304e+33   -7.0807339227837053e+33   4.2974215753440092e+35   1.6382597329015165e+35   -4.2381947528100727e+33   -5.4572141410358458e+33   -1.0156922300160955e+35   -1.0767542119780867e+35   -1.2053964133730361e+33   1.2298345724567404e+34   -4.2646894812645499e+34   -1.9183420917517648e+34   1.9088843576252699e+34   1.3702375616303618e+34   6.1611490175221546e+33   1.3306461410946347e+34   6.1803620801312394e+34   -4.4241427909730716e+35   -5.0934554876112653e+33   -1.2507068690388447e+34   1.6640892733281882e+34   9.4859053889252685e+33   -1.6840899943641010e+35   -1.4714665980773570e+35   9.6005896135836488e+35   1.9378478169353693e+36   7.2857514178390641e+33   1.3159228849065095e+33   -7.7279573137714416e+34   -6.1402573376313083e+34   2.1075485105686712e+35   3.7146698926031726e+35   -1.0011385208140601e+36   -7.4833030642867954e+35   -3.7645752867227391e+34   -4.4592074542055741e+34   7.4282092790546381e+33   1.2136042606367911e+34   -3.6656939426508139e+34   -1.5280553385336366e+34   -4.9285083583743064e+34   -5.4354222488239282e+34   -5.1459158794015887e+33   -1.1094338881962516e+34   -3.3912949555848225e+35   -7.5277203975991660e+34   -6.0892531201920078e+33   -8.0281677201424607e+31   9.6455711037301848e+33   5.9622252815481211e+33   -1.3071492748226013e+34   -1.2594124201761733e+34   8.4345905807789591e+34   8.5838535017759613e+34   -1.2306754005761648e+34   -2.9671488133293665e+33   -6.9552900399624738e+34   -5.6767224273783968e+34   1.7424465297271227e+34   2.5956149619866381e+34   -3.7918366232905882e+34   -3.9792372626579304e+34   -2.3827225280322162e+34   -2.7282929435956145e+34   6.9661945600191849e+34   1.0224031875422656e+35   1.3649489737712239e+36   5.8323667119648737e+35   9.5291578892335014e+34   8.9033142081490420e+34   2.3112897403986087e+33   -3.5714954723388034e+32   -1.3815834117438523e+35   -5.2104395203669132e+34   2.3525662978177176e+35   2.3080339182671913e+35   -2.0949770560049158e+34   -2.5265739127530466e+34   5.1848249927057978e+33   4.9771164796815264e+33   -3.0410059171908458e+34   -2.2126523365773644e+34   -1.0016126516961217e+35   -4.4649630547007617e+35   -1.0795725699561507e+35   -1.2281759967215717e+35   -5.6978808658900558e+35   -9.2963737735961124e+34   1.4972187844197442e+34   -8.7731296095480283e+33   -2.7116871794290855e+35   -5.1065939683113968e+35   4.7048471619918013e+34   5.3296986362374827e+34   2.6774305710823162e+34   1.9897279371745370e+34   6.9469506062423122e+34   4.8698278958030910e+34   -1.8875363561909960e+34   -1.1664347348993072e+34   1.1751495857583367e+34   2.9651043838786254e+33   8.1098708636243103e+33   -8.3173020257673439e+33   -4.7288266170188965e+34   -5.6292994575320858e+34   -2.9000089324804169e+34   -3.0329446530163112e+34   -6.9928369630480344e+35   -1.2776494087425716e+35   1.7112099762831329e+35   1.9941351664084526e+35   -4.0723174458524169e+34   -3.7479497805271744e+34   -3.6780110227005069e+34   -4.2373893100289230e+34   7.7666649356765804e+34   8.8204741983465060e+34   7.9550488875026539e+33   6.2034265066847481e+33   4.6907643502699063e+33   -3.0807739377152535e+33   -2.0708337806880600e+34   1.3184396779141286e+34   1.1240408111932822e+36   4.9230895208599082e+35   1.8778841273295062e+33   -1.5409399225298842e+33   -1.4648752493650220e+33   1.1097194867386646e+33   -1.2434908756676411e+35   -1.0426753627275623e+35   6.8521499843291290e+35   1.2645748447607898e+35   1.1736661227567594e+34   1.4925814724633238e+34   -1.1510687118654783e+34   -1.7889625985249426e+34   -1.3347814439207800e+35   -8.4198554937988363e+34   5.5275753837782735e+33   2.1503623227841496e+34   1.1130438318431556e+35   7.5693116880559870e+34   2.4595794179538191e+33   2.3819051990439287e+33   2.1364764008178516e+34   1.1117927544156116e+34   -6.3379905688261282e+33   9.8561171038806141e+33   1.9485653148740622e+34   3.2675182987774487e+34   -1.7965664870783069e+34   -1.4473482640790981e+34   -1.1959258765871087e+36   -5.2979231823744389e+34   -2.9421574204122988e+36   -1.6292370510001156e+36   -1.3829530339947373e+35   -1.2431338276268814e+36   2.9382980212061948e+35   2.2897469721600618e+35   2.7403809656373907e+34   1.7405303425380297e+34   -4.4089575234231265e+34   -6.7096293277986868e+34   -5.4700880266029784e+33   -6.8056036636084331e+33   2.5986160334921913e+33   3.1304101742197160e+33   -8.0152662727088772e+33   1.7318368947126480e+33   6.3131165384304072e+34   3.3328744284374909e+34   5.1434893661277992e+34   4.3385571520193277e+34   3.4191897570943030e+34   3.5632991729437256e+34   2.5094790568268639e+34   2.9947975786399379e+34   -1.2023017201308299e+34   2.7236453957353219e+33   -4.2206106808832733e+34   -3.6713212873316520e+34   -2.9852216305019948e+34   -3.3192491276016701e+34   2.6433955324751828e+34   2.9177471522820956e+34   -3.5893258945948806e+33   -3.8179646349993030e+32   9.1477247154085697e+34   2.1589794875761661e+35   -1.0882406253197055e+35   -3.0098406340105449e+35   -3.2710427852786373e+35   -1.0622873611336202e+35   2.3729160619700566e+35   5.1737799527118775e+34   3.7077288017174330e+34   9.2502952837231658e+35   1.2688665647822625e+35   1.5235853585958355e+35   3.2941029531466627e+33   2.0252416275449132e+33   -2.9830358063526335e+33   -7.0476101617566508e+32   -5.9030145409930511e+33   -7.6702895766009042e+32   -7.6064552032364369e+34   -7.0377032299406590e+34   1.2116765491004591e+34   1.9166881879565487e+33   5.1133228921658289e+33   8.7816534749685938e+33   -2.4017931752559667e+34   -1.9689331194151131e+34   6.3892087195674635e+34   2.9743584420554286e+34   2.8182094737225687e+32   2.9607937157774606e+33   7.5293135002939170e+33   8.6556187405718933e+33   -6.2787846489920196e+34   -7.0496655801329119e+34   7.1533187438358665e+34   7.3480437744850470e+34   -2.8230771334226242e+33   9.5883518792441991e+32   -4.4099657806434644e+35   -1.7570142858628918e+35   8.3438904139862581e+34   8.1747691179165387e+34   1.1350238348446023e+34   1.9879061046415189e+34   5.4246982603451653e+35   2.8049134677183418e+35   -2.2688358723510472e+35   -6.8047104075047226e+35   -3.4843020302351939e+34   -3.1366684159513241e+34   3.3807488173063118e+34   4.0712443665546681e+34   -1.4083711035068946e+35   -1.6226254747199917e+35   -1.2005028700799020e+35   -1.2365106292602609e+35   -7.8045569970356606e+32   -3.3232839860169960e+33   1.3980415168096388e+35   2.9914477804535987e+35   -8.6897257839399148e+33   3.8383900305842615e+33   -3.3426628520443886e+35   -1.0791582431495283e+35   -1.5722321220552916e+33   1.5137320009326313e+34   1.4922431027992460e+35   7.8846999681123220e+34   4.0779840430097185e+34   4.0773123892573435e+34   -2.4789855060304214e+35   -4.8457961894670866e+35   -1.4652432369225954e+35   -1.5533384655452563e+35   -1.9713475950642943e+35   -6.0759715483067173e+34   2.0813433478144803e+35   6.5021704731067012e+35   -6.6236298878742212e+33   -1.0830166240493564e+34   4.8529633482961541e+34   2.0145349593764466e+35   1.0171869396042249e+35   9.1307587747231926e+34   1.6104842242444397e+35   1.5352337280409069e+35   1.7970316035709705e+35   2.0317349685460391e+35   1.5571243741292612e+35   4.7088394200337529e+35   -7.9445980114922288e+34   -2.0162275571069273e+35   -3.4942374284372854e+35   -8.0154562572914200e+35   1.9622979875506130e+35   1.1953829406641887e+35   3.8733827445442671e+35   1.5454824091811104e+35   6.2828947748115596e+36   6.2368678258788314e+36   -5.1667308570420363e+34   -5.2684333402728834e+34   -4.8804477229175243e+34   -4.0606121838605432e+34   2.9365932908484783e+34   2.7813460984475243e+34   9.1158351837664232e+35   2.4935012970099869e+35   -1.2149265775213272e+35   -9.8380881640910258e+34   -1.0454989496837121e+33   -2.7644990058390930e+33   -2.1927922139988253e+34   1.5667003684307195e+33   -2.9292413832736190e+33   -9.1094504664186574e+33   -3.8018818841048268e+35   -1.5440208527143971e+35   2.9509976947582001e+35   2.2257974890889548e+35   -2.1646723307660988e+35   -2.0676113870764136e+35   1.8609180450892574e+34   1.3410767513815763e+34   2.8935259701191516e+34   2.2976097992693684e+34   1.1923441920295849e+33   2.8895939724123956e+33   1.6917058661984970e+34   1.3895752756191228e+34   7.6178619524046658e+34   8.1420451996852216e+34   6.0818286935434688e+34   6.5060464840424555e+34   5.9833939798942311e+34   5.7107920707666975e+34   4.6808785836447316e+34   5.4117462652101265e+34   -8.9384137546905590e+33   -8.5024743100306836e+33   -1.0828496760647157e+34   1.0339713088346017e+33   </DataArray> 
</CellData> 
</Piece>
</UnstructuredGrid>
</VTKFile>