<?xml version="1.0"?>
<VTKFile type="UnstructuredGrid"  version="0.1"  >
<UnstructuredGrid>
<Piece  NumberOfPoints="387" NumberOfCells="708">
<Points>
<DataArray  type="Float64"  NumberOfComponents="3"  format="ascii">0 3 0  0 -3 0  6 -3 0  6 3 0  3 -3 0  6 0 0  3 3 0  0 0 0  3 0 0  0 -1.5 0  1.5 -3 0  1.5 3 0  0 1.5 0  6 -1.5 0  4.5 -3 0  6 1.5 0  4.5 3 0  4.25 -1.25 0  1.75 1.25 0  2.25 -1.5 0  4.5 0.75 0  1.541666666666667 -0.2083333333333333 0  3.219827586206896 1.521551724137931 0  1.125 -1.875 0  4.875 1.875 0  0.8702651515151515 0.631628787878788 0  2.25 2.214285714285714 0  3.316176470588236 -1.904411764705882 0  5.214285714285714 -0.75 0  5.03125 -2.03125 0  0.96875 2.03125 0  4.041666666666667 -0.2083333333333333 0  0.8205128205128206 -0.9134615384615387 0  3.942582294752138 2.189194098250713 0  3.061487638533674 -0.968243819266837 0  2.192708333333333 0.4427083333333334 0  4.157850026972511 -2.182329047049442 0  2.331456616463011 -0.5285296485744057 0  3.654761904761905 0.5654761904761902 0  5.25 1.125 0  2.563673341677096 -2.280663329161452 0  5.126674107142857 0.1283482142857142 0  0.75 -3 0  0 -2.25 0  6 2.25 0  5.25 3 0  0.7680051888903191 -0.1384245958639337 0  1.617229471026718 -1.006949429867069 0  4.218940341429579 1.468686552856807 0  3.75 -3 0  2.25 -3 0  0.75 3 0  5.25 -3 0  6 -0.75 0  0 -0.75 0  0 0.75 0  2.25 3 0  6 -2.25 0  0 2.25 0  3.75 3 0  6 0.75 0  1.787573018358365 -2.279142327213878 0  3.195025188237337 2.273430909158844 0  2.528159645294386 1.151699106559287 0  1.041598427383826 1.322848427383826 0  1.520951704545454 0.4634232954545453 0  1.580357142857143 2.325892857142857 0  4.919642857142857 -1.361607142857143 0  4.54981623521892 -0.6483700862895494 0  2.99317863826574 0.6697091957925523 0  3.450169349029507 -0.4574865881858001 0  3.605016126014028 -1.323102984840902 0  2.745144658907412 1.882241931337371 0  0.4898065586600511 1.092777516238393 0  0.5 -1.875 0  1.217028489597945 -2.469323836800685 0  1.659912685567181 -1.604738056701542 0  5.4375 1.6875 0  5.34375 2.34375 0  4.52741779500503 2.384139265001677 0  3.375 -2.514804579549941 0  0.5446428571428571 -2.455357142857143 0  2.766554087216865 -1.745795909102064 0  4.525516559010988 0.1490283123570637 0  3.87554132162248 -0.8280516069565407 0  4.53622906132958 -1.76963146596888 0  0.4243951612903226 1.875 0  0.554851858345021 2.446861709948876 0  5.575604838709677 -1.875 0  5.445148141654979 -2.446861709948876 0  4.875 -2.575604838709677 0  1.440573466105381 1.721823466105381 0  2.193519495405082 1.631799415080963 0  5.472630128027442 -1.330813078900983 0  4.750126894286386 1.343813447143193 0  5.607142857142857 -0.375 0  2.625 2.607142857142857 0  0.3921763197810531 0.375 0  5.60901753622775 0.3750000000000001 0  1.125 2.613454943235572 0  3.701856738980915 1.163867513386733 0  3.736112850688509 1.696746876851408 0  3.519183195491339 0.06065128742606851 0  3.973620778217027 -1.693401606145563 0  0.8125 -1.444978632478633 0  1.256657745408029 -0.6381828923025001 0  0 -1.125 0  5.019997778514942 0.6475044429701156 0  4.125 3 0  1.285569332703024 0.8955310332120207 0  0 -0.375 0  0.4638922275641027 -0.5625 0  2.056635259780241 -0.07226025978024064 0  2.130475508371123 -1.000827820434028 0  2.677484372338113 -1.267299126394495 0  2.848680878891876 -0.4956836878192376 0  4.937901885089369 -0.3340245904575954 0  4.393563081308854 1.919544166973803 0  4.053859126323572 0.2813938488760716 0  1.181051704329518 0.1167440895674965 0  1.971354166666667 2.607142857142857 0  4.875 3 0  2.519350561152006 0.08093582719875507 0  3.139443301924015 -1.442524927271905 0  6 2.625 0  1.849169256239503 1.945480934753207 0  1.867196483071171 0.7892354369530077 0  1.192506522009051 -1.184888428863342 0  3.375 3 0  3.603234392481833 2.536866305538572 0  3.846752908916648 -2.537707634073423 0  2.014339897513945 -1.886932065281681 0  4.038392037966526 0.8363324773944992 0  4.421242701722609 -2.552534687860327 0  3.715389848650903 -2.108856956172843 0  2.985668138820625 1.127780908772207 0  0.4500794934449803 -1.173696061598557 0  3.366760888116476 0.8891914618875614 0  1.869163043700093 -0.6107175804171328 0  2.175114838273305 -2.53928723780967 0  3.014417665538299 -2.241523065744933 0  2.625 -3 0  2.819968145332426 -2.617202329573456 0  5.625 1.3125 0  5.563263538826679 0.814027077653358 0  5.625 3 0  2.550041671270923 0.7074928970804664 0  4.014583091741168 2.59891853892166 0  0.6440729668673318 1.499523832583132 0  5.219449799568244 -1.660557808485412 0  3.474012636702472 -0.9300738420779746 0  0.8125 -2.142857142857143 0  1.875 -3 0  4.945010515846405 2.554471797033147 0  2.611388969012422 -0.8478354915063726 0  3.223746055611014 0.3371683159691745 0  4.843939757110898 -0.9483610977948225 0  4.66556954816842 -2.220888354477256 0  4.125 -3 0  4.448108395110625 -0.2524000502731018 0  5.63671875 2.05078125 0  2.822484133964224 1.491327727709286 0  3.378213092764193 1.903125093887009 0  5.607142857142858 -0.9231200445788541 0  2.12639693023183 1.100450516019641 0  5.625 -3 0  0.375 3 0  0 2.625 0  6 -2.625 0  0.3931307155906299 -0.01856779822591927 0  0.7651723094668359 0.253768144801553 0  0.8549199714190221 -0.5218333744252657 0  1.421989550604507 -2.133299471886336 0  1.582611957351803 -2.615166692128227 0  4.420331038793115 1.133144382396504 0  0.375 -3 0  0 -2.625 0  5.078156723571596 1.54697017071479 0  1.877250715260938 -1.288801575378032 0  2.409169073010687 -1.916147168931784 0  1.146151077069952 -0.268000681695328 0  1.726784828652036 0.1335728643263411 0  2.745628549924675 0.3838821021397905 0  3.011490900297165 2.613625569196862 0  5.62463365164608 -4.137655439684362e-05 0  1.875 3 0  1.125 3 0  6 0.375 0  2.625 3 0  6 -1.125 0  6 -0.375 0  4.875 -3 0  6 -1.875 0  3.375 -3 0  1.125 -3 0  0 -1.875 0  0 0.375 0  0 1.125 0  0 1.875 0  6 1.125 0  6 1.875 0  4.813017731148975 0.9677363687196439 0  2.807371623148303 2.264962208227767 0  0.3692953377255688 0.7436406761680247 0  5.615625 2.615625 0  0.9395725521479794 0.9812935874921043 0  1.390920759130215 1.238984550166515 0  0.9588795022085095 1.672288500195331 0  0.87712392565124 -2.641031728267331 0  0.3665732993114588 -1.532068934251388 0  1.841944504733106 1.591700334213738 0  4.832970185136452 0.3385359233091246 0  4.169083540479082 -0.5746148619765254 0  5.281697083409333 -0.2046640461936881 0  4.072845380968044 1.784516523483641 0  1.293029195762321 -1.543079049035419 0  4.878733886054284 -1.720697370582964 0  3.609167475697567 -1.687579152754035 0  4.836981942878573 2.222259978217028 0  4.204938267037067 -0.9128589669335569 0  5.183079748175263 -1.111742407358677 0  1.22880920402559 2.273525645756405 0  1.469404041858679 2.654509729682302 0  4.566761045622856 -1.414165869120005 0  4.531680518427715 1.606803989975667 0  1.918929241273175 2.27471131819245 0  3.526908551984126 2.207147627530056 0  1.85683899811842 0.4533569963423589 0  1.173935704088662 0.4636872214645547 0  2.116602160898525 -2.207718541460878 0  4.51821874648995 -1.042568353750147 0  2.721551512787618 -0.1859357475290837 0  5.294921875 2.001953125 0  5.288671874999999 2.670703125 0  2.199940744527116 0.7756512213396931 0  4.090519467638897 1.163401080812838 0  2.298177083333333 2.670581371753247 0  2.484362362207526 -2.687319997637033 0  3.300530569898859 1.207053005217563 0  3.936078051808127 -1.362164062673065 0  5.341218841330105 0.5689885832563615 0  4.226314635599414 0.5638853401248238 0  2.524510956818563 1.635483567726497 0  0.3219546452225031 1.389066019009203 0  3.139061555368706 -0.3133905221155423 0  3.145569907612562 -0.6461828528638952 0  3.701427442033566 -0.2272880199383185 0  1.686782510365738 -1.934662341426927 0  2.427696494631844 1.944064773844184 0  3.901817839425732 1.422433381251312 0  2.356489883772755 -0.2025512972825912 0  4.820757576351118 -0.01647699434507374 0  3.064415631228375 1.809719380809516 0  4.643002705009462 2.69782572459795 0  4.31624250429496 2.728112685900672 0  1.520100694408069 -1.314302747998057 0  3.754559308601717 -0.5375020107416889 0  0.25 -2.0625 0  0.8125 -1.826636904761905 0  4.861738621091127 -0.6367294570749906 0  1.545149590740081 2.015832101819233 0  3.857113324620078 0.04127675193819436 0  0.2479605082936806 -0.9375 0  4.21293081604216 2.352874368135467 0  3.123697687162562 -2.708090473740421 0  3.415275466010259 -2.202892416689829 0  3.601103065320932 -2.727566580522146 0  1.558629964945672 -0.5289921609136927 0  3.324859026263307 -1.198136798699183 0  2.424350759683917 -1.092246517929194 0  2.746461744851735 0.9398108087856579 0  0.8882026075771248 2.364936378889839 0  0.8066140242673685 2.679750706449505 0  4.504454978490482 0.4491616076730165 0  4.26881784709759 -0.009649566552704852 0  1.3125 -2.75919801263958 0  1.120577805361368 -2.179971784090952 0  3.734048623985226 0.8602850349907256 0  3.527828882622877 1.432983527791925 0  1.959527908877504 -1.578124930685265 0  0.7602573574724077 1.220872343399509 0  0.6691217533356228 0.8531987603309893 0  1.877213035764122 -2.564340152892596 0  3.32172153715047 2.685939810104955 0  4.285565286275464 -1.569057178671076 0  4.227521511146333 -1.876903861267543 0  5.34375 1.40625 0  5.71875 1.59375 0  1.56245959534423 0.766197796710638 0  0.2458241530773257 2.4375 0  0.2794123857609179 2.138568368155198 0  5.754175846922674 -2.4375 0  5.720587614239082 -2.138568368155198 0  0.6472458227887359 2.124973059628837 0  5.124241021325378 -2.352544055105642 0  5.189172233440652 -2.675873509996353 0  5.364643151640443 -2.12768524739804 0  2.298896485720138 1.348573610321417 0  0.6008689899200503 -2.745193425346304 0  0.307092513690391 -2.651812055231556 0  0.2683745826107009 -2.363146293324415 0  0.5223214285714285 -2.165178571428571 0  0.3925308914031174 2.699891746740618 0  5.607469108596883 -2.699891746740618 0  2.138365140930822 1.917102089073091 0  1.25507379660067 1.953406658386351 0  4.135759889512124 -2.476847355718572 0  0.5330865684534913 -0.8980875812659357 0  2.548249345531056 -1.538893887888457 0  2.67686064875775
[...]
<CellData  Scalars="f_26-2"> 
<DataArray  type="Float64"  Name="f_26-2"  format="ascii">4.2512661822655650e+78   2.7221373227999246e+79   2.4837584752170866e+79   5.9875630171934253e+79   1.3069891014747402e+79   2.0633475589062404e+79   -1.0206169169045170e+79   7.0137078187533272e+78   -2.6324109207838307e+77   6.2979867194638636e+77   1.0937721313532788e+79   -2.3187337439766455e+79   -9.0818711735475917e+78   -2.1036867065498264e+79   -1.5526643634535993e+77   -5.3062932199952884e+78   -1.8986242527515593e+79   2.7386102805547411e+78   -4.3446721190649805e+78   -1.3239318151532143e+78   1.6745205455913708e+78   -7.3814494712846952e+78   -6.4041002631381043e+78   2.0826649633547642e+78   5.3073964512866361e+78   -2.1134548919538743e+78   3.3994224011423037e+79   4.5997305902536379e+78   5.9445922045586621e+78   -6.6810125486798344e+77   1.9744390113782970e+78   -1.1467526283588575e+79   -2.8094260726066323e+76   -2.1090597509402631e+79   1.5616047400796433e+79   1.4724842879990751e+79   -4.5640562102134376e+77   1.3032235004371713e+78   -1.6837646352257394e+79   3.9533659707110947e+78   7.7012926416002843e+78   -3.8677373990389824e+77   -1.1163939114756901e+79   -1.2056372665945446e+79   -3.6472807412311942e+79   -1.6528179064617051e+79   -1.4597617947902218e+79   -4.5926120970514490e+80   2.5175726859137885e+79   -2.0750048017590724e+79   2.1960282126871704e+79   -3.3842781789382330e+79   1.9703953551843926e+79   3.9009118347937913e+78   1.6205512724176377e+79   1.4309906090899478e+79   -2.5924992725440216e+79   -1.1759397681102808e+79   -6.7133001418406222e+77   -8.0673895314850636e+77   1.1728681915053609e+78   1.8516461278578163e+78   -1.1362102635970627e+78   -3.9769018622013673e+78   7.8478537952855601e+79   -1.4568641569410626e+80   1.0465137050193714e+78   -5.8863516102117442e+79   -3.2843051361558254e+78   8.5801140513439255e+78   -4.1196760823036167e+78   -1.6205434136395970e+79   5.4075185452091687e+78   6.3631917191985410e+78   -2.9157093502596270e+78   -8.3574777137215426e+78   2.1054144129837128e+79   1.2567688621748786e+78   -7.0063418988855512e+78   -1.4100896600398168e+77   -1.4201865742165192e+78   -7.9952987702542951e+77   -1.5582502108828941e+78   3.3165995731306772e+78   2.8292214657902128e+78   5.4395735121059494e+78   -2.0916795959495354e+78   4.4449636389525436e+77   -2.9294511652544932e+78   -5.4383542884155575e+78   1.3719134870692097e+78   -1.0489321328868397e+79   -3.9777145875082974e+78   9.0241794267164826e+77   2.6314983793294925e+78   2.2392119842085311e+78   -4.4812594997878151e+78   -6.3918355766053454e+78   -3.5114589945855231e+80   1.5563786963577569e+79   1.4273059358150592e+79   4.5167074212717492e+79   1.5834343530699503e+79   2.1191244723634128e+79   -6.3142060539931039e+78   -3.1958731354256913e+79   5.5415356784176414e+80   -8.6270768418150499e+78   -1.3481669936709800e+79   6.0699263219568634e+78   9.7398353926541547e+78   -9.7973312943990467e+78   -8.2392752370786275e+78   -2.6560823684205133e+78   -2.0033112045016556e+78   6.1616650244590893e+77   3.8993124184914166e+77   -5.1394531159397033e+78   -1.2354178687845278e+78   1.0550412836160946e+78   4.4160127541006502e+78   -4.2874705262291671e+77   -6.5060943657916365e+78   1.0739082587981892e+78   3.0335533262680793e+77   -4.4396247316455387e+77   -8.8463820043705741e+77   9.1469817706202092e+79   -1.2325755324935153e+77   -1.5405996297753104e+79   -2.9473152657057720e+79   7.2057735209164815e+78   5.7333471705865010e+79   -3.9739062511252584e+78   -5.6850829607857676e+78   -6.9325932617172164e+78   1.2747921739894879e+80   4.0431165251056489e+79   -6.8409810925474245e+78   -1.1304023928311877e+79   -9.5825938340270667e+78   -1.0926773518030119e+79   -7.7211490491720967e+78   -2.9535604691920030e+78   9.4961422599949830e+77   -2.0579799263132455e+77   2.7822721083821775e+79   1.3466022909059747e+79   3.5740458578110401e+77   1.3623467728276697e+79   -1.4214147867530912e+79   -3.7114586704452520e+79   -8.3945298693874847e+78   -1.3573529425277695e+79   2.7089490149754187e+77   -1.0442486461001830e+78   3.9161807811797744e+78   4.5441325698529364e+77   -1.7461149739248813e+80   -2.6599080974083713e+79   -2.5755656013116590e+80   8.9755859616769848e+78   4.7919650482980465e+78   6.6391387495113521e+78   7.3235946201694633e+78   6.1588012652480468e+78   5.4626868457563054e+78   9.3021012786332718e+78   2.0818359049904824e+78   1.0987343145224237e+78   -5.4026440085885614e+78   -6.8793878269459615e+78   -3.2411207527835458e+79   -3.4353583730084766e+79   -6.6144042836845708e+78   -3.6063763106538031e+78   7.9281116724709265e+78   1.3043022698762720e+79   9.0263644701880377e+78   4.4832068051018710e+79   2.5859612850842706e+80   4.3756864660439739e+79   6.8875045055861053e+77   -1.2098236423143790e+78   1.5045616689995548e+78   4.3137588466840468e+78   9.3559659479687484e+78   -2.5163599064123868e+79   -1.9073737853047096e+78   -4.9125817819481256e+77   -2.9081697193142343e+78   -2.7276218460579209e+77   1.5809405372117859e+79   1.8577978905217568e+79   1.1169818506024932e+79   1.4324511432493942e+79   1.8487320698787038e+80   3.2027343115467458e+79   1.2943541387134599e+78   1.1537577936568078e+79   1.2193580408801101e+79   -1.1117749573590738e+79   -1.3147790719455448e+79   -1.4429035107443220e+79   -8.1530628693258201e+78   7.2318705881517945e+77   1.6803488829847399e+78   -5.7679945661955100e+78   -3.9575190580974523e+78   6.9363702563591762e+78   1.4633450868708025e+79   -5.2432556275376517e+78   -5.0707795072019333e+78   6.5097698843909077e+78   8.8821901265772960e+78   -3.2802102583139642e+78   5.6684282410794174e+78   4.2319750885594571e+78   -1.5917179598327567e+79   -1.0242946022985584e+79   -8.1646275527704664e+79   -1.2956536654674327e+80   2.9460593864579408e+80   2.3710109419029990e+80   -2.9771639927235983e+78   3.8008419049610272e+80   3.8615631270140693e+80   -3.9749480325056772e+77   -1.7438135363448492e+78   3.4530711714755099e+80   1.6818944933871983e+80   -4.9682435664661490e+78   1.3097022275239377e+78   7.7864991138537770e+76   6.9612520537233983e+77   3.1075439935624923e+78   3.4062459370975351e+78   5.2449010245699933e+79   -8.1235131573637724e+78   -1.9994697684089768e+80   -3.6729238019482407e+80   -4.3004273589769372e+79   -4.7504203133762915e+79   1.1231327050170459e+79   8.6140841035799156e+78   -3.9977051352448139e+78   3.8059107635629426e+77   -3.9273421908540146e+77   -2.4725680940177354e+78   -5.3607481896027400e+77   1.8564421697522331e+77   -5.8663767774090147e+79   -6.0458906741633621e+78   -5.9831090345624608e+78   -2.3403743288912409e+78   3.1607093198154406e+80   -1.4254497036450099e+78   -4.0972555415402558e+78   -4.8405207691129691e+78   -7.6622609419578262e+78   3.4608644544875942e+78   -4.5072979228092314e+78   -2.1870630400672356e+78   7.5219351634670264e+77   -9.7474737579082110e+78   -2.3538169158107286e+79   -4.0171201016470379e+78   1.7205103063959071e+79   -3.5257652463678808e+78   -5.7175924635634569e+78   -7.2273434730843553e+78   1.6563464463067645e+78   -9.2019210158712689e+79   -2.9195048021621603e+78   5.1105632525024492e+78   4.2767611864913131e+78   -3.0759913996856314e+79   9.0123639256954287e+78   2.5633943434349899e+79   3.5379663252506612e+79   -9.3782340573522842e+79   -6.9124167240846475e+78   -1.4754501253723182e+79   -1.4304729186978213e+79   -8.3269193379413584e+80   -3.6336873994611413e+80   -8.0997081475718787e+80   -4.7919360627020602e+79   -1.1873307835988486e+79   -4.3187075544599139e+79   1.8003549266999713e+79   2.4638632574237242e+79   6.6803829717145464e+78   5.2500497743010624e+78   1.0300714913103398e+79   5.0324639648447664e+78   5.0838851093787053e+78   6.6359445406916754e+78   -8.7956283550026651e+77   -2.0592997270803250e+78   1.4141025697908031e+80   6.3928269279238567e+79   1.4315195659690915e+78   1.7615772776309118e+80   1.1294186206058810e+79   7.2000899790118611e+79   1.2940286788348154e+79   1.7605405476965289e+79   8.9919119470351013e+79   2.4110881038379373e+80   7.1608269192865505e+78   1.3878466234276836e+80   1.3766927388823444e+79   3.6167115804739405e+79   7.1588752456253494e+79   6.1857449589263479e+79   -1.6420502461032703e+79   -1.1130479261226724e+80   6.2147633276950938e+78   1.0657548404238628e+79   -1.6531256517756505e+78   -7.3984946524280980e+79   -3.5970393272280970e+79   -6.7797781016405621e+80   -1.4023175254434250e+80   -1.6304186118059887e+80   -1.5642012528605328e+80   -2.0193367141655541e+79   -4.0071640637908747e+78   -4.1029757038435299e+79   -7.6525634245221955e+78   -1.3289778045548562e+79   1.3168740755089308e+80   3.1167522429862640e+80   3.0391170860991801e+80   1.5224217039368559e+80   -2.0071321024046963e+79   -1.6880789281960804e+79   -3.3988717070748656e+78   -3.0722322039867565e+78   -1.1283651602600343e+80   -5.2796875988579679e+79   4.5316070580978563e+80   2.2534125967434841e+80   2.8393808269474152e+78   1.0992553618579170e+78   3.4193519097607988e+77   5.2369369911134342e+77   8.4425559007982664e+77   7.1055290315726283e+77   -3.8315904462892600e+80   -1.7862766371020882e+80   -2.3108095268936855e+80   -1.1225038766275751e+80   -1.1765209712303246e+78   -1.4683346024178504e+78   -9.6767756399165111e+78   -6.8514991939390997e+78   -3.7981345296434654e+78   -4.4853438779129358e+78   6.0918894773761357e+78   -3.7445240663721072e+78   -1.0894177242905113e+79   -1.8625847104460789e+79   2.8866976803893599e+79   3.8439357180940779e+79   -8.1344157875737457e+77   2.1265097942624944e+77   3.6127988432163779e+78   4.0245092605017379e+78   -3.7301020850474465e+79   -4.0052180922033690e+79   -1.9845769002719422e+78   7.8052208003647161e+77   -4.5534301083777571e+78   -2.7674748992069166e+78   1.0254374247369109e+78   -1.5467327322496000e+78   9.3826031133171751e+79   3.5769950905524479e+79   -9.2583451965351748e+77   -1.1917537767804082e+78   -2.2168874637757484e+79   -2.3501684258016098e+79   -2.6432160913938256e+77   2.6836227365639085e+78   -9.3082632231804350e+78   -4.1868829799139413e+78   4.1665907281751255e+78   2.9909264529430427e+78   1.3444317895142711e+78   2.9041913393920610e+78   1.3491350301553098e+79   -9.6573693825700656e+79   -1.1126298527839703e+78   -2.7307233581304543e+78   3.6325806492816953e+78   2.0705889086570727e+78   -3.6757760433645666e+79   -3.2116977658534492e+79   2.0954669999525483e+80   4.2296131883771927e+80   1.5900035986878455e+78   2.8694590655561590e+77   -1.6867424563118605e+79   -1.3402193555569841e+79   4.6004880402218756e+79   8.1088578782443250e+79   -2.1853651931003039e+80   -1.6334902488856053e+80   -8.2170606647734485e+78   -9.7330824090919758e+78   1.6211165168723977e+78   2.6489003577222177e+78   -8.0012015861489942e+78   -3.3353511558761921e+78   -1.0757559816836484e+79   -1.1863839962883799e+79   -1.1241826626204424e+78   -2.4225733168952384e+78   -7.4023640736835747e+79   -1.6431370849438127e+79   -1.3290532859680781e+78   -1.7430689834666598e+76   2.1054368213094254e+78   1.3013155491660991e+78   -2.8534456364092832e+78   -2.7492158260519861e+78   1.8412069474421689e+79   1.8737625242998295e+79   -2.6863537460183172e+78   -6.4782727403693459e+77   -1.5180971509703481e+79   -1.2390397645953406e+79   3.8035159755347412e+78   5.6658993781624071e+78   -8.2766268449252960e+78   -8.6856604561488449e+78   -5.2009425684454141e+78   -5.9551435716263467e+78   1.5205335309711677e+79   2.2315695784694945e+79   2.9791740832209962e+80   1.2729978547805011e+80   2.0801048673483878e+79   1.9434991559560531e+79   5.0426030685736476e+77   -7.8259412208541225e+76   -3.0157332913558720e+79   -1.1372296943783856e+79   5.1354138527911497e+79   5.0382025126474275e+79   -4.5731962322450954e+78   -5.5152975058040898e+78   1.1295699716744669e+78   1.0843927781050297e+78   -6.6376367953913528e+78   -4.8297057220054698e+78   -2.1862991152192264e+79   -9.7460720761977576e+79   -2.3562911375119946e+79   -2.6806025755974867e+79   -1.2436890796252240e+80   -2.0291324721365781e+79   3.2679965460642272e+78   -1.9151537469313192e+78   -5.9187597574955479e+79   -1.1145793036549498e+80   1.0270053697818920e+79   1.1634037159225955e+79   5.8443309528723717e+78   4.3427509863525420e+78   1.5164282009705161e+79   1.0630110808934043e+79   -4.1200627714605401e+78   -2.5461528777328784e+78   2.5625417837430827e+78   6.4367290785209480e+77   1.7702702635124572e+78   -1.8159488141680435e+78   -1.0321678567639348e+79   -1.2286984841121724e+79   -6.3301512452126544e+78   -6.6202006452901563e+78   -1.5264748799524439e+80   -2.7889733221800563e+79   3.7354442521486292e+79   4.3530141417281039e+79   -8.8888007306651182e+78   -8.1804911883067209e+78   -8.0281872302316854e+78   -9.2489720887097828e+78   1.6953670098220306e+79   1.9254037842724524e+79   1.7360525640577462e+78   1.3534481859249360e+78   1.0234575904029041e+78   -6.7280558038392027e+77   -4.5199706742060855e+78   2.8784703993151976e+78   2.4534118920999811e+80   1.0745609801169667e+80   4.0871567849701058e+77   -3.3721153684515372e+77   -3.2139922043283051e+77   2.4065703961125167e+77   -2.7141334171911992e+79   -2.2758339857623923e+79   1.4956342477572121e+80   2.7602834757122100e+79   2.5615690306339607e+78   3.2577932062583442e+78   -2.5153799556841461e+78   -3.9060312349671376e+78   -2.9124956213194985e+79   -1.8376061447686413e+79   1.2029180913836908e+78   4.6925834785596357e+78   2.4305217163713116e+79   1.6524519760348674e+79   5.3461830893280545e+77   5.1740659992452465e+77   4.6615905059817254e+78   2.4244245112474294e+78   -1.3834214349614455e+78   2.1508536395427345e+78   4.2503913675795798e+78   7.1306361799621572e+78   -3.9218556735825516e+78   -3.1596864542489260e+78   -2.6105989970986201e+80   -1.1564880759032171e+79   -6.4223242078753476e+80   -3.5564120106007219e+80   -3.0186538535864739e+79   -2.7135740659961023e+80   6.4140473706471819e+79   4.9983112484049593e+79   5.9965937269498510e+78   3.8462311664795725e+78   -9.6088080357989371e+78   -1.4598502931224271e+79   -1.1953888616622196e+78   -1.4866987837150549e+78   5.6502557806369487e+77   6.8135492769923777e+77   -1.7508341297766873e+78   3.7728950543763925e+77   1.3780529805675701e+79   7.2751582656996268e+78   1.1227341811315053e+79   9.4702265302570979e+78   7.4633161322937197e+78   7.7782510609795676e+78   5.4773893050403057e+78   6.5368268713699133e+78   -2.6256410762878584e+78   5.9295359212959899e+77   -9.2120529040491703e+78   -8.0134339656220096e+78   -6.5157264153312253e+78   -7.2447941543364422e+78   5.7702298914941179e+78   6.3691333827119131e+78   -7.8440735756652232e+77   -8.3886470990731425e+76   1.9968973263111623e+79   4.7128002174326783e+79   -2.3751859250355018e+79   -6.5694974845656679e+79   -7.1375598271740337e+79   -2.3178736212615621e+79   5.1795622703686687e+79   1.1292987725452287e+79   8.0936945412230307e+78   2.0190634893890355e+80   2.7697931138608772e+79   3.3258273893775707e+79   7.1804146384057706e+77   4.4103140409411036e+77   -6.5215155104071994e+77   -1.5488930377557092e+77   -1.2889222728185966e+78   -1.6783624378917089e+77   -1.6602406397486677e+79   -1.5361114749001820e+79   2.6449137140030573e+78   4.1812849596076955e+77   1.1154664272390371e+78   1.9162168828941222e+78   -5.2424289858560936e+78   -4.2977074461934815e+78   1.3946542183475157e+79   6.4923612525014586e+78   5.9874832050914383e+76   6.4467935934500337e+77   1.6435009675696608e+78   1.8893314783042916e+78   -1.3704319891420111e+79   -1.5386738759486570e+79   1.5614584028158408e+79   1.6039646767151079e+79   -6.1723900479234493e+77   2.0854672398608629e+77   -9.6263319380297492e+79   -3.8352992548227083e+79   1.8212675267018690e+79   1.7843526711818840e+79   2.4776455187435883e+78   4.3393174742927111e+78   1.1840823968181872e+80   6.1224595853790310e+79   -4.9524004991363832e+79   -1.4853289758300841e+80   -7.6054666619447209e+78   -6.8466480581718888e+78   7.3795166366071262e+78   8.8867959486080779e+78   -3.0739980350199033e+79   -3.5416201646996714e+79   -2.6203118417657862e+79   -2.6988906099712194e+79   -1.7209128030007902e+77   -7.2732304097185751e+77   3.0516303318525742e+79   6.5296487731146131e+79   -1.8968577114472689e+78   8.3768869126468209e+77   -7.2963312541112958e+79   -2.3555764105502893e+79   -3.4317749844580619e+77   3.3040844882680559e+78   3.2572075281579217e+79   1.7210393589867639e+79   8.9017411074826926e+78   8.9006167615532043e+78   -5.4105526337302857e+79   -1.0575963310018898e+80   -3.1980771069928161e+79   -3.3903697597925793e+79   -4.3019082626054614e+79   -1.3259270498137505e+79   4.5430602654451009e+79   1.4192652064077251e+80   -1.4458718718710394e+78   -2.3639520974554780e+78   1.0594063922035905e+79   4.3980121454709225e+79   2.2203798969747084e+79   1.9931161033785925e+79   3.5155231072661618e+79   3.3512216555997209e+79   3.9227036793641799e+79   4.4350526456462408e+79   3.3987000186551836e+79   1.0277800660087798e+80   -1.7341277157084637e+79   -4.4009559979903632e+79   -7.6271800024283214e+79   -1.7496024517538863e+80   4.2832226781728692e+79   2.6092303485567433e+79   8.4546638234843147e+79   3.3734189894398508e+79   1.3713428179647547e+81   1.3612919528384916e+81   -1.1277399085982351e+79   -1.1499405175412526e+79   -1.0652636330452105e+79   -8.8632038277689299e+78   6.4097183281562473e+78   6.0709304471131164e+78   1.9896436189496628e+80   5.4423937510512077e+79   -2.6516882973547667e+79   -2.1472468476818266e+79   -2.2878897907374327e+77   -6.0396250667797600e+77   -4.7860468576349794e+78   3.4198158841446124e+77   -6.3942701680382778e+77   -1.9884396493702197e+78   -8.2987147924310353e+79   -3.3702734223856270e+79   6.4417560898032932e+79   4.8587076030691093e+79   -4.7246930855040019e+79   -4.5128217134135151e+79   4.0621776522463407e+78   2.9274195103633042e+78   6.3164391839284608e+78   5.0154909491081004e+78   2.5969373405088701e+77   6.3002055737733481e+77   3.6927114660231476e+78   3.0332331484334131e+78   1.6628758586026985e+79   1.7773012432261570e+79   1.3276015749351690e+79   1.4201951325311262e+79   1.3060902961601302e+79   1.2466020691200812e+79   1.0217935857757480e+79   1.1813264958290806e+79   -1.9520285346375523e+78   -1.8567016279171142e+78   -2.3638217891520607e+78   2.2545780842115947e+77   </DataArray> 
</CellData> 
</Piece>
</UnstructuredGrid>
</VTKFile>