<?xml version="1.0"?>
<VTKFile type="UnstructuredGrid"  version="0.1"  >
<UnstructuredGrid>
<Piece  NumberOfPoints="387" NumberOfCells="708">
<Points>
<DataArray  type="Float64"  NumberOfComponents="3"  format="ascii">0 3 0  0 -3 0  6 -3 0  6 3 0  3 -3 0  6 0 0  3 3 0  0 0 0  3 0 0  0 -1.5 0  1.5 -3 0  1.5 3 0  0 1.5 0  6 -1.5 0  4.5 -3 0  6 1.5 0  4.5 3 0  4.25 -1.25 0  1.75 1.25 0  2.25 -1.5 0  4.5 0.75 0  1.541666666666667 -0.2083333333333333 0  3.219827586206896 1.521551724137931 0  1.125 -1.875 0  4.875 1.875 0  0.8702651515151515 0.631628787878788 0  2.25 2.214285714285714 0  3.316176470588236 -1.904411764705882 0  5.214285714285714 -0.75 0  5.03125 -2.03125 0  0.96875 2.03125 0  4.041666666666667 -0.2083333333333333 0  0.8205128205128206 -0.9134615384615387 0  3.942582294752138 2.189194098250713 0  3.061487638533674 -0.968243819266837 0  2.192708333333333 0.4427083333333334 0  4.157850026972511 -2.182329047049442 0  2.331456616463011 -0.5285296485744057 0  3.654761904761905 0.5654761904761902 0  5.25 1.125 0  2.563673341677096 -2.280663329161452 0  5.126674107142857 0.1283482142857142 0  0.75 -3 0  0 -2.25 0  6 2.25 0  5.25 3 0  0.7680051888903191 -0.1384245958639337 0  1.617229471026718 -1.006949429867069 0  4.218940341429579 1.468686552856807 0  3.75 -3 0  2.25 -3 0  0.75 3 0  5.25 -3 0  6 -0.75 0  0 -0.75 0  0 0.75 0  2.25 3 0  6 -2.25 0  0 2.25 0  3.75 3 0  6 0.75 0  1.787573018358365 -2.279142327213878 0  3.195025188237337 2.273430909158844 0  2.528159645294386 1.151699106559287 0  1.041598427383826 1.322848427383826 0  1.520951704545454 0.4634232954545453 0  1.580357142857143 2.325892857142857 0  4.919642857142857 -1.361607142857143 0  4.54981623521892 -0.6483700862895494 0  2.99317863826574 0.6697091957925523 0  3.450169349029507 -0.4574865881858001 0  3.605016126014028 -1.323102984840902 0  2.745144658907412 1.882241931337371 0  0.4898065586600511 1.092777516238393 0  0.5 -1.875 0  1.217028489597945 -2.469323836800685 0  1.659912685567181 -1.604738056701542 0  5.4375 1.6875 0  5.34375 2.34375 0  4.52741779500503 2.384139265001677 0  3.375 -2.514804579549941 0  0.5446428571428571 -2.455357142857143 0  2.766554087216865 -1.745795909102064 0  4.525516559010988 0.1490283123570637 0  3.87554132162248 -0.8280516069565407 0  4.53622906132958 -1.76963146596888 0  0.4243951612903226 1.875 0  0.554851858345021 2.446861709948876 0  5.575604838709677 -1.875 0  5.445148141654979 -2.446861709948876 0  4.875 -2.575604838709677 0  1.440573466105381 1.721823466105381 0  2.193519495405082 1.631799415080963 0  5.472630128027442 -1.330813078900983 0  4.750126894286386 1.343813447143193 0  5.607142857142857 -0.375 0  2.625 2.607142857142857 0  0.3921763197810531 0.375 0  5.60901753622775 0.3750000000000001 0  1.125 2.613454943235572 0  3.701856738980915 1.163867513386733 0  3.736112850688509 1.696746876851408 0  3.519183195491339 0.06065128742606851 0  3.973620778217027 -1.693401606145563 0  0.8125 -1.444978632478633 0  1.256657745408029 -0.6381828923025001 0  0 -1.125 0  5.019997778514942 0.6475044429701156 0  4.125 3 0  1.285569332703024 0.8955310332120207 0  0 -0.375 0  0.4638922275641027 -0.5625 0  2.056635259780241 -0.07226025978024064 0  2.130475508371123 -1.000827820434028 0  2.677484372338113 -1.267299126394495 0  2.848680878891876 -0.4956836878192376 0  4.937901885089369 -0.3340245904575954 0  4.393563081308854 1.919544166973803 0  4.053859126323572 0.2813938488760716 0  1.181051704329518 0.1167440895674965 0  1.971354166666667 2.607142857142857 0  4.875 3 0  2.519350561152006 0.08093582719875507 0  3.139443301924015 -1.442524927271905 0  6 2.625 0  1.849169256239503 1.945480934753207 0  1.867196483071171 0.7892354369530077 0  1.192506522009051 -1.184888428863342 0  3.375 3 0  3.603234392481833 2.536866305538572 0  3.846752908916648 -2.537707634073423 0  2.014339897513945 -1.886932065281681 0  4.038392037966526 0.8363324773944992 0  4.421242701722609 -2.552534687860327 0  3.715389848650903 -2.108856956172843 0  2.985668138820625 1.127780908772207 0  0.4500794934449803 -1.173696061598557 0  3.366760888116476 0.8891914618875614 0  1.869163043700093 -0.6107175804171328 0  2.175114838273305 -2.53928723780967 0  3.014417665538299 -2.241523065744933 0  2.625 -3 0  2.819968145332426 -2.617202329573456 0  5.625 1.3125 0  5.563263538826679 0.814027077653358 0  5.625 3 0  2.550041671270923 0.7074928970804664 0  4.014583091741168 2.59891853892166 0  0.6440729668673318 1.499523832583132 0  5.219449799568244 -1.660557808485412 0  3.474012636702472 -0.9300738420779746 0  0.8125 -2.142857142857143 0  1.875 -3 0  4.945010515846405 2.554471797033147 0  2.611388969012422 -0.8478354915063726 0  3.223746055611014 0.3371683159691745 0  4.843939757110898 -0.9483610977948225 0  4.66556954816842 -2.220888354477256 0  4.125 -3 0  4.448108395110625 -0.2524000502731018 0  5.63671875 2.05078125 0  2.822484133964224 1.491327727709286 0  3.378213092764193 1.903125093887009 0  5.607142857142858 -0.9231200445788541 0  2.12639693023183 1.100450516019641 0  5.625 -3 0  0.375 3 0  0 2.625 0  6 -2.625 0  0.3931307155906299 -0.01856779822591927 0  0.7651723094668359 0.253768144801553 0  0.8549199714190221 -0.5218333744252657 0  1.421989550604507 -2.133299471886336 0  1.582611957351803 -2.615166692128227 0  4.420331038793115 1.133144382396504 0  0.375 -3 0  0 -2.625 0  5.078156723571596 1.54697017071479 0  1.877250715260938 -1.288801575378032 0  2.409169073010687 -1.916147168931784 0  1.146151077069952 -0.268000681695328 0  1.726784828652036 0.1335728643263411 0  2.745628549924675 0.3838821021397905 0  3.011490900297165 2.613625569196862 0  5.62463365164608 -4.137655439684362e-05 0  1.875 3 0  1.125 3 0  6 0.375 0  2.625 3 0  6 -1.125 0  6 -0.375 0  4.875 -3 0  6 -1.875 0  3.375 -3 0  1.125 -3 0  0 -1.875 0  0 0.375 0  0 1.125 0  0 1.875 0  6 1.125 0  6 1.875 0  4.813017731148975 0.9677363687196439 0  2.807371623148303 2.264962208227767 0  0.3692953377255688 0.7436406761680247 0  5.615625 2.615625 0  0.9395725521479794 0.9812935874921043 0  1.390920759130215 1.238984550166515 0  0.9588795022085095 1.672288500195331 0  0.87712392565124 -2.641031728267331 0  0.3665732993114588 -1.532068934251388 0  1.841944504733106 1.591700334213738 0  4.832970185136452 0.3385359233091246 0  4.169083540479082 -0.5746148619765254 0  5.281697083409333 -0.2046640461936881 0  4.072845380968044 1.784516523483641 0  1.293029195762321 -1.543079049035419 0  4.878733886054284 -1.720697370582964 0  3.609167475697567 -1.687579152754035 0  4.836981942878573 2.222259978217028 0  4.204938267037067 -0.9128589669335569 0  5.183079748175263 -1.111742407358677 0  1.22880920402559 2.273525645756405 0  1.469404041858679 2.654509729682302 0  4.566761045622856 -1.414165869120005 0  4.531680518427715 1.606803989975667 0  1.918929241273175 2.27471131819245 0  3.526908551984126 2.207147627530056 0  1.85683899811842 0.4533569963423589 0  1.173935704088662 0.4636872214645547 0  2.116602160898525 -2.207718541460878 0  4.51821874648995 -1.042568353750147 0  2.721551512787618 -0.1859357475290837 0  5.294921875 2.001953125 0  5.288671874999999 2.670703125 0  2.199940744527116 0.7756512213396931 0  4.090519467638897 1.163401080812838 0  2.298177083333333 2.670581371753247 0  2.484362362207526 -2.687319997637033 0  3.300530569898859 1.207053005217563 0  3.936078051808127 -1.362164062673065 0  5.341218841330105 0.5689885832563615 0  4.226314635599414 0.5638853401248238 0  2.524510956818563 1.635483567726497 0  0.3219546452225031 1.389066019009203 0  3.139061555368706 -0.3133905221155423 0  3.145569907612562 -0.6461828528638952 0  3.701427442033566 -0.2272880199383185 0  1.686782510365738 -1.934662341426927 0  2.427696494631844 1.944064773844184 0  3.901817839425732 1.422433381251312 0  2.356489883772755 -0.2025512972825912 0  4.820757576351118 -0.01647699434507374 0  3.064415631228375 1.809719380809516 0  4.643002705009462 2.69782572459795 0  4.31624250429496 2.728112685900672 0  1.520100694408069 -1.314302747998057 0  3.754559308601717 -0.5375020107416889 0  0.25 -2.0625 0  0.8125 -1.826636904761905 0  4.861738621091127 -0.6367294570749906 0  1.545149590740081 2.015832101819233 0  3.857113324620078 0.04127675193819436 0  0.2479605082936806 -0.9375 0  4.21293081604216 2.352874368135467 0  3.123697687162562 -2.708090473740421 0  3.415275466010259 -2.202892416689829 0  3.601103065320932 -2.727566580522146 0  1.558629964945672 -0.5289921609136927 0  3.324859026263307 -1.198136798699183 0  2.424350759683917 -1.092246517929194 0  2.746461744851735 0.9398108087856579 0  0.8882026075771248 2.364936378889839 0  0.8066140242673685 2.679750706449505 0  4.504454978490482 0.4491616076730165 0  4.26881784709759 -0.009649566552704852 0  1.3125 -2.75919801263958 0  1.120577805361368 -2.179971784090952 0  3.734048623985226 0.8602850349907256 0  3.527828882622877 1.432983527791925 0  1.959527908877504 -1.578124930685265 0  0.7602573574724077 1.220872343399509 0  0.6691217533356228 0.8531987603309893 0  1.877213035764122 -2.564340152892596 0  3.32172153715047 2.685939810104955 0  4.285565286275464 -1.569057178671076 0  4.227521511146333 -1.876903861267543 0  5.34375 1.40625 0  5.71875 1.59375 0  1.56245959534423 0.766197796710638 0  0.2458241530773257 2.4375 0  0.2794123857609179 2.138568368155198 0  5.754175846922674 -2.4375 0  5.720587614239082 -2.138568368155198 0  0.6472458227887359 2.124973059628837 0  5.124241021325378 -2.352544055105642 0  5.189172233440652 -2.675873509996353 0  5.364643151640443 -2.12768524739804 0  2.298896485720138 1.348573610321417 0  0.6008689899200503 -2.745193425346304 0  0.307092513690391 -2.651812055231556 0  0.2683745826107009 -2.363146293324415 0  0.5223214285714285 -2.165178571428571 0  0.3925308914031174 2.699891746740618 0  5.607469108596883 -2.699891746740618 0  2.138365140930822 1.917102089073091 0  1.25507379660067 1.953406658386351 0  4.135759889512124 -2.476847355718572 0  0.5330865684534913 -0.8980875812659357 0  2.548249345531056 -1.538893887888457 0  2.67686064875775
[...]
<CellData  Scalars="f_26-2"> 
<DataArray  type="Float64"  Name="f_26-2"  format="ascii">2.0881088672356387e+66   1.3370411765431986e+67   1.2199557630946686e+67   2.9409305588560112e+67   6.4195814262313036e+66   1.0134609836240406e+67   -5.0130021504362144e+66   3.4449473986307253e+66   -1.2928139414568478e+65   3.0934366272167575e+65   5.3723160816373873e+66   -1.1389018655086742e+67   -4.4607830898803716e+66   -1.0332761922287305e+67   -7.6263467266886225e+64   -2.6063098582338576e+66   -9.3255484175356854e+66   1.3451313388673323e+66   -2.1339872586396596e+66   -6.5027930175744859e+65   8.2248255140951705e+65   -3.6255731746794644e+66   -3.1455247092481947e+66   1.0229536142832983e+66   2.6068519296333809e+66   -1.0380726818211333e+66   1.6697047435939349e+67   2.2592753579698460e+66   2.9198266963582334e+66   -3.2814951267203316e+65   9.6979954755420267e+65   -5.6325497865741760e+66   -1.3797434259971078e+64   -1.0359155980120337e+67   7.6701858455403993e+66   7.2324486348768110e+66   -2.2417379180921832e+65   6.4011166200860232e+65   -8.2702172930162453e+66   1.9417870306474836e+66   3.7826674666604344e+66   -1.8997330677046245e+65   -5.4834343127133609e+66   -5.9217747477022944e+66   -1.7914471431605238e+67   -8.1182098888231207e+66   -7.1699692089022786e+66   -2.2557689034522822e+68   1.2365641566929459e+67   -1.0191886657081254e+67   1.0786311573363086e+67   -1.6622696669727808e+67   9.6780635901745772e+66   1.9160249837314531e+66   7.9597138956937235e+66   7.0286439959509843e+66   -1.2733683659007004e+67   -5.7759078648162361e+66   -3.2973450335778576e+65   -3.9625043137148731e+65   5.7610275336139955e+65   9.0949650613140069e+65   -5.5805817526482362e+65   -1.9533465225424373e+66   3.8546577687440740e+67   -7.1557317367895313e+67   5.1402138668500452e+65   -2.8912205511600741e+67   -1.6131602508757857e+66   4.2141505952464831e+66   -2.0234715335287002e+66   -7.9598588112060203e+66   2.6560326431079260e+66   3.1254307283218880e+66   -1.4321229189420712e+66   -4.1049745569319685e+66   1.0341233450568259e+67   6.1729457296257005e+65   -3.4413341826127082e+66   -6.9256758493427012e+64   -6.9755587941490813e+65   -3.9270489950824864e+65   -7.6537062570824899e+65   1.6290271207837853e+66   1.3896416431465559e+66   2.6717805375298193e+66   -1.0273724097479708e+66   2.1833032433899719e+65   -1.4388662157048992e+66   -2.6711731499447048e+66   6.7384659317274192e+65   -5.1520819345791933e+66   -1.9537486516414941e+66   4.4324416202746858e+65   1.2925255877576438e+66   1.0998461897214471e+66   -2.2010773325907660e+66   -3.1395023154049166e+66   -1.7247357150962112e+68   7.6445162738856070e+66   7.0105414392752689e+66   2.2184855416505584e+67   7.7774025575243910e+66   1.0408572950168793e+67   -3.1013757803464509e+66   -1.5697300706268065e+67   2.7218586549806391e+68   -4.2373917937031685e+66   -6.6218401993979190e+66   2.9813867190903453e+66   4.7839482903571833e+66   -4.8121929172768832e+66   -4.0469169327793840e+66   -1.3045939719575492e+66   -9.8397154665681575e+65   3.0265311581286567e+65   1.9152909785040313e+65   -2.5243529676369300e+66   -6.0679092558036946e+65   5.1822888194132277e+65   2.1690323579188969e+66   -2.1058406484770390e+65   -3.1956339942564942e+66   5.2748358735321582e+65   1.4900412047253075e+65   -2.1805406192987302e+65   -4.3450198332996867e+65   4.4927559345113402e+67   -6.0538303185135066e+64   -7.5670240272950855e+66   -1.4476446480726507e+67   3.5392864174664799e+66   2.8160681425876370e+67   -1.9518775456867419e+66   -2.7923621442704193e+66   -3.4051081283705934e+66   6.2614435227222062e+67   1.9858618633033089e+67   -3.3601091264326434e+66   -5.5522401540466133e+66   -4.7067214800346136e+66   -5.3669464115021703e+66   -3.7924267531443307e+66   -1.4507121185634151e+66   4.6643230852298133e+65   -1.0107772264124482e+65   1.3665776715728421e+67   6.6141510705353387e+66   1.7554770653447089e+65   6.6914841955274613e+66   -6.9816143937694918e+66   -1.8229703305762368e+67   -4.1231743604846898e+66   -6.6669635821550229e+66   1.3305407487529392e+65   -5.1291186206417895e+65   1.9235265335341652e+66   2.2320038489617307e+65   -8.5764553182253539e+67   -1.3064765812383658e+67   -1.2650497209867780e+68   4.4085694169660400e+66   2.3536879745079986e+66   3.2609680537462951e+66   3.5971553943310722e+66   3.0250390561555759e+66   2.6831250168121333e+66   4.5689437477638895e+66   1.0225431407683527e+66   5.3966907696913942e+65   -2.6536350103824951e+66   -3.3789734957234748e+66   -1.5919543084743964e+67   -1.6873591965361809e+67   -3.2488224564260872e+66   -1.7713570082284264e+66   3.8940786281595258e+66   6.4063857450878409e+66   4.4335105681175556e+66   2.2020300849812205e+67   1.2701570770393637e+68   2.1492235456136036e+67   3.3829679136891810e+65   -5.9423301898681845e+65   7.3900611375186047e+65   2.1188026601665422e+66   4.5954046597761154e+66   -1.2359707214393243e+67   -9.3684366665308395e+65   -2.4128307189373083e+65   -1.4284151191874564e+66   -1.3397025085702978e+65   7.7651587003943861e+66   9.1250080547436044e+66   5.4863200647047391e+66   7.0358227084238776e+66   9.0804912099877149e+67   1.5730991938309685e+67   6.3576205988050039e+65   5.6669513948034991e+66   5.9891619204927468e+66   -5.4607492868713268e+66   -6.4578521103493102e+66   -7.0871717926316685e+66   -4.0045723434180033e+66   3.5521528133695720e+65   8.2534862676663519e+65   -2.8330867085940901e+66   -1.9438279480763776e+66   3.4069586748635174e+66   7.1875613449237266e+66   -2.5753496348763618e+66   -2.4906344290502340e+66   3.1974250587271007e+66   4.3626944379193702e+66   -1.6111531829987059e+66   2.7841834280404620e+66   2.0786332862018947e+66   -7.8180978358586834e+66   -5.0310646623545332e+66   -4.0102486003605496e+67   -6.3639081598881189e+67   1.4470268120493705e+68   1.1645782878256165e+68   -1.4623067572593143e+66   1.8668746720826642e+68   1.8966992284096228e+68   -1.9523638873729650e+65   -8.5651342647196307e+65   1.6960590530059809e+68   8.2610294294345523e+67   -2.4402693174450159e+66   6.4329676045800496e+65   3.8254579316186779e+64   3.4193207444011761e+65   1.5263437336198340e+66   1.6730593790616587e+66   2.5761549498482827e+67   -3.9900581901049891e+66   -9.8208598056850277e+67   -1.8040416443985594e+68   -2.1122583250946431e+67   -2.3332831249329675e+67   5.5165276745587988e+66   4.2310088363399229e+66   -1.9635694333932078e+66   1.8693529079254130e+65   -1.9289254469589378e+65   -1.2144578021216702e+66   -2.6329430410427094e+65   9.1192261686187566e+64   -2.8814153539304067e+67   -2.9695852307341600e+66   -2.9387460691306248e+66   -1.1495265414877801e+66   1.5524576860293379e+68   -7.0014123972063586e+65   -2.0124615631165007e+66   -2.3775375265023854e+66   -3.7635021480819729e+66   1.6998861537056327e+66   -2.2138641514429298e+66   -1.0742234457892099e+66   3.6946381985457426e+65   -4.7880940528599364e+66   -1.1561475503974516e+67   -1.9734954685197656e+66   8.4505469071423965e+66   -1.7320508042849763e+66   -2.8084347029754346e+66   -3.5501677271418441e+66   8.1345024591393613e+65   -4.5197404189061639e+67   -1.4339838257013678e+66   2.5101736092305858e+66   2.1006324331429705e+66   -1.5108457240757000e+67   4.4266324034836122e+66   1.2590707615107986e+67   1.7377544255071094e+67   -4.6063378678897216e+67   -3.3951975976128342e+66   -7.2470250601331098e+66   -7.0261096590797397e+66   -4.0899603443680952e+68   -1.7847700159734122e+68   -3.9783600339922907e+68   -2.3536710112117954e+67   -5.8318603487860628e+66   -2.1212369264313622e+67   8.8428611096797214e+66   1.2101837979813193e+67   3.2812251761276612e+66   2.5786861920961952e+66   5.0594357045354666e+66   2.4718133713787169e+66   2.4970701785235693e+66   3.2593998681106600e+66   -4.3201942580149019e+65   -1.0114750348520672e+66   6.9457012659868763e+67   3.1399885874361989e+67   7.0312535057820471e+65   8.6524035570608586e+67   5.5473977795577457e+66   3.5364878166472364e+67   6.3558750773007340e+66   8.6472640879170003e+66   4.4165903552548321e+67   1.1842629790630065e+68   3.5172088191726419e+66   6.8167353973372090e+67   6.7619516811111643e+66   1.7764325724616114e+67   3.5162508842304615e+67   3.0382747004077926e+67   -8.0653708285529032e+66   -5.4670129332640704e+67   3.0525315703763183e+66   5.2346536305674515e+66   -8.1197019571052745e+65   -3.6339455298663340e+67   -1.7667693773401740e+67   -3.3300454137878811e+68   -6.8878111878393274e+67   -8.0081842291851393e+67   -7.6829432684983856e+67   -9.9184486107551885e+66   -1.9682122887814732e+66   -2.0152742986172405e+67   -3.7587363811128788e+66   -6.5276424633184078e+66   6.4681393313157219e+67   1.5308667058507863e+68   1.4927345964527365e+68   7.4777357814772475e+67   -9.8585111774014482e+66   -8.2914041953723134e+66   -1.6694345486835150e+66   -1.5089990823156412e+66   -5.5422320365436324e+67   -2.5932432849462694e+67   2.2258070542967718e+68   1.1068174756637159e+68   1.3946316822881110e+66   5.3992905349439790e+65   1.6795786014334136e+65   2.5723381760737991e+65   4.1468869217229142e+65   3.4902118153389511e+65   -1.8819744990414868e+68   -8.7737119527104554e+67   -1.1350083789068448e+68   -5.5134412171442829e+67   -5.7787017257673839e+65   -7.2120387712220912e+65   -4.7529789940270268e+66   -3.3652757938982295e+66   -1.8655415006827459e+66   -2.2030810751335270e+66   2.9921757311440529e+66   -1.8392119470603171e+66   -5.3509368315640395e+66   -9.1485320603347495e+66   1.4178685972663407e+67   1.8880383041071679e+67   -3.9952582287593119e+65   1.0446219003565024e+65   1.7745149150627873e+66   1.9767352190009784e+66   -1.8321295451498966e+67   -1.9672592643493253e+67   -9.7476874387973776e+65   3.8337458036312455e+65   -2.2365212029911179e+66   -1.3593058268656007e+66   5.0367895483324737e+65   -7.5970657530748072e+65   4.6084722514349506e+67   1.7569188592168258e+67   -4.5474052600595327e+65   -5.8535415022193869e+65   -1.0888775612918103e+67   -1.1543416794146500e+67   -1.2981988718888182e+65   1.3181301003768690e+66   -4.5719772444192028e+66   -2.0564892585132545e+66   2.0465198938873141e+66   1.4690641553557738e+66   6.6035226106997748e+65   1.4264643309685981e+66   6.6265886647415422e+66   -4.7434420471899811e+67   -5.4648872911669004e+65   -1.3412544129741369e+66   1.7842261196293452e+66   1.0170183903209762e+66   -1.8054456457153061e+67   -1.5775024374550316e+67   1.0292389359883950e+68   2.0774762022662346e+68   7.8096989054163057e+65   1.4094218494158016e+65   -8.2848403465798191e+66   -6.5828079496008812e+66   2.2596371715483499e+67   3.9828533957377627e+67   -1.0733930455344236e+68   -8.0232696683314714e+67   -4.0360045513163761e+66   -4.7806357428719980e+66   7.9625167832553780e+65   1.3010708496131032e+66   -3.9299804632196603e+66   -1.6382369762655145e+66   -5.2838313458714216e+66   -5.8272082743358336e+66   -5.5216268309175764e+65   -1.1898980012416952e+66   -3.6358467549744481e+67   -8.0706558444635438e+66   -6.5279648516861245e+65   -8.5620904355271407e+63   1.0341348323776427e+66   6.3917251816260599e+65   -1.4015356672012994e+66   -1.3503409440384662e+66   9.0435144589921824e+66   9.2034204671529013e+66   -1.3194656216650221e+66   -3.1819455555429512e+65   -7.4564983944460907e+66   -6.0858404991285612e+66   1.8681857621106994e+66   2.7829386111455165e+66   -4.0652614867963707e+66   -4.2661680983629756e+66   -2.5545658078869450e+66   -2.9250101171049672e+66   7.4684614821866697e+66   1.0960887896711147e+67   1.4632930246347242e+68   6.2526345795318119e+67   1.0216919334124863e+67   9.5459480260964046e+66   2.4768095193751310e+65   -3.8436926178138329e+64   -1.4812482866472996e+67   -5.5857779793990619e+66   2.5223778435634328e+67   2.4746302475963231e+67   -2.2462310665471317e+66   -2.7089661895345925e+66   5.5482927737455494e+65   5.3263833378771249e+65   -3.2602333529150719e+66   -2.3722241774538602e+66   -1.0738524057964044e+67   -4.7870129629382330e+67   -1.1573491749813669e+67   -1.3166427639519012e+67   -6.1086745694896376e+67   -9.9665669902139878e+66   1.6051543454770169e+66   -9.4067181149035418e+65   -2.9071402037846481e+67   -5.4745243320548089e+67   5.0443765776162603e+66   5.7143287563529809e+66   2.8705805164254211e+66   2.1330471939947278e+66   7.4482908743487248e+66   5.2212274657354592e+66   -2.0236662214199064e+66   -1.2506025730736154e+66   1.2586701333360478e+66   3.1617887692184488e+65   8.6950997201573964e+65   -8.9194333322788792e+65   -5.0697381211145639e+66   -6.0350461713654649e+66   -3.1092027559410858e+66   -3.2516681461308064e+66   -7.4976356249928805e+67   -1.3698691315378072e+67   1.8347499530122862e+67   2.1380839286534382e+67   -4.3659455162172591e+66   -4.0180444048555392e+66   -3.9432344129713629e+66   -4.5428530997909751e+66   8.3271901838052035e+66   9.4570691884509922e+66   8.5270566695060608e+65   6.6478232005346515e+65   5.0269833776978695e+65   -3.3046197561297828e+65   -2.2200916066087595e+66   1.4138246961068006e+66   1.2050519458297465e+68   5.2779625432704476e+67   2.0075828830198975e+65   -1.6562362135602575e+65   -1.5785176508599561e+65   1.1821480093444207e+65   -1.3331115983520337e+67   -1.1178302451874232e+67   7.3461633926865509e+67   1.3557784540420272e+67   1.2581771030928607e+66   1.6001433660265154e+66   -1.2354693445988965e+66   -1.9185324295901410e+66   -1.4305482891534500e+67   -9.0258553739180563e+66   5.9086587546799012e+65   2.3048805552349414e+66   1.1938011063421495e+67   8.1163905569567102e+66   2.6260552210745818e+65   2.5415330917542389e+65   2.2896625722140532e+66   1.1908291594191390e+66   -6.7949989497730762e+65   1.0564456723686861e+66   2.0876992150465748e+66   3.5023908985837892e+66   -1.9263096915787386e+66   -1.5519516152632195e+66   -1.2822562866094591e+68   -5.6803599194914668e+66   -3.1544744635378423e+68   -1.7468147088857582e+68   -1.4826832217647884e+67   -1.3328353509477430e+68   3.1504081548724126e+67   2.4550365507401969e+67   2.9452702436106854e+66   1.8888560362614570e+66   -4.7196914367112087e+66   -7.1707113216247410e+66   -5.8713432369369871e+65   -7.3021940239845858e+65   2.7754032892079209e+65   3.3467653163993372e+65   -8.5995514452252678e+65   1.8531943516247902e+65   6.7686296992309457e+66   3.5733640337655429e+66   5.5145722586495436e+66   4.6515244660283432e+66   3.6657839461623544e+66   3.8204692680049152e+66   2.6903506858219126e+66   3.2107178088034337e+66   -1.2896370366612812e+66   2.9125372835407430e+65   -4.5247212356638398e+66   -3.9359889053028326e+66   -3.2003552522760540e+66   -3.5584543358614998e+66   2.8341827741846804e+66   3.1283480345539563e+66   -3.8527398441751675e+65   -4.1199161467884425e+64   9.8082211106370021e+66   2.3148012406240975e+67   -1.1666301427008498e+67   -3.2267663390390798e+67   -3.5057966085487928e+67   -1.1384839803609236e+67   2.5440640260508595e+67   5.5468187591528262e+66   3.9754057178192647e+66   9.9171118550256401e+67   1.3604483415813274e+67   1.6335574398669128e+67   3.5268971802504678e+65   2.1662994490117455e+65   -3.2031283219110973e+65   -7.6070470877161666e+64   -6.3308174417894958e+65   -8.2433978981089004e+64   -8.1546692341544389e+66   -7.5449784645088710e+66   1.2991112374541130e+66   2.0537529007956112e+65   5.4789204985717280e+65   9.4119928812558196e+65   -2.5749438633915270e+66   -2.1109208114809505e+66   6.8501714331327968e+66   3.1888765554789174e+66   2.9419703132889662e+64   3.1666001835242704e+65   8.0724418711792558e+65   9.2798971103756637e+65   -6.7312060218882515e+66   -7.5575673261790654e+66   7.6694682643760903e+66   7.8782476730825857e+66   -3.0316451438474870e+65   1.0243773397779241e+65   -4.7281978834587893e+67   -1.8837969460940548e+67   8.9455864643959909e+66   8.7642704439989334e+66   1.2169531045710411e+66   2.1313571440121368e+66   5.8159006108526361e+67   3.0071907913100896e+67   -2.4324881283984537e+67   -7.2955429473150457e+67   -3.7356044219748799e+66   -3.3628928282788828e+66   3.6246232029020899e+66   4.3649584748081285e+66   -1.5098678073038880e+67   -1.7395517659297057e+67   -1.2870288384886818e+67   -1.3256247692009232e+67   -8.4515142074390680e+64   -3.5722908503144775e+65   1.4988801817677182e+67   3.2071912715287878e+67   -9.3168587179146818e+65   4.1145159869693162e+65   -3.5837651011921727e+67   -1.1569968838087447e+67   -1.6855983543173599e+65   1.6228793544644469e+66   1.5998545967982139e+67   8.4532922222577008e+66   4.3722976028264902e+66   4.3717431243569107e+66   -2.6575240322088496e+67   -5.1946426774626613e+67   -1.5708125491547258e+67   -1.6652616289358249e+67   -2.1129909785528670e+67   -6.5126246686112652e+66   2.2314316773780667e+67   6.9710572234627996e+67   -7.1017357055998808e+65   -1.1611111072412254e+66   5.2035173951499585e+66   2.1601827843147719e+67   1.0905914089150585e+67   9.7896551540074489e+66   1.7267308624379766e+67   1.6460306217542523e+67   1.9267272746129744e+67   2.1783792828479034e+67   1.6693527673145182e+67   5.0481880021899043e+67   -8.5175783242109091e+66   -2.1616337493725455e+67   -3.7462692786890066e+67   -8.5935849907514722e+67   2.1038062124589721e+67   1.2815852500843173e+67   4.1527082032299060e+67   1.6569345408408241e+67   6.7356789230541657e+68   6.6863119836426980e+68   -5.5391636698465490e+66   -5.6482071673838150e+66   -5.2322958903173078e+66   -4.3533732719117673e+66   3.1482858658855728e+66   2.9818817057172288e+66   9.7726135392121628e+67   2.6731625542857314e+67   -1.3024407904470969e+67   -1.0546722179121136e+67   -1.1237120161806975e+65   -2.9664684110859078e+65   -2.3507820811950350e+66   1.6797228322118939e+65   -3.1406940659892119e+65   -9.7666879225140468e+65   -4.0761094381526959e+67   -1.6553892665788849e+67   3.1640180211860987e+67   2.3864670270255359e+67   -2.3206465902870925e+67   -2.2165810120730812e+67   1.9952330889006793e+66   1.4378702185701945e+66   3.1024648608433951e+66   2.4634747167133696e+66   1.2755846838598897e+65   3.0945430246077798e+65   1.8137618026302937e+66   1.4898434021754504e+66   8.1676029271913211e+66   8.7296296963360453e+66   6.5208236466640793e+66   6.9756190494324576e+66   6.4151676157080155e+66   6.1229761981210019e+66   5.0187763036665000e+66   5.8023597691615510e+66   -9.5877828888670350e+65   -9.1195740982964378e+65   -1.1610454555595536e+66   1.1074071035379184e+65   </DataArray> 
</CellData> 
</Piece>
</UnstructuredGrid>
</VTKFile>