<?xml version="1.0"?>
<VTKFile type="UnstructuredGrid"  version="0.1"  >
<UnstructuredGrid>
<Piece  NumberOfPoints="387" NumberOfCells="708">
<Points>
<DataArray  type="Float64"  NumberOfComponents="3"  format="ascii">0 3 0  0 -3 0  6 -3 0  6 3 0  3 -3 0  6 0 0  3 3 0  0 0 0  3 0 0  0 -1.5 0  1.5 -3 0  1.5 3 0  0 1.5 0  6 -1.5 0  4.5 -3 0  6 1.5 0  4.5 3 0  4.25 -1.25 0  1.75 1.25 0  2.25 -1.5 0  4.5 0.75 0  1.541666666666667 -0.2083333333333333 0  3.219827586206896 1.521551724137931 0  1.125 -1.875 0  4.875 1.875 0  0.8702651515151515 0.631628787878788 0  2.25 2.214285714285714 0  3.316176470588236 -1.904411764705882 0  5.214285714285714 -0.75 0  5.03125 -2.03125 0  0.96875 2.03125 0  4.041666666666667 -0.2083333333333333 0  0.8205128205128206 -0.9134615384615387 0  3.942582294752138 2.189194098250713 0  3.061487638533674 -0.968243819266837 0  2.192708333333333 0.4427083333333334 0  4.157850026972511 -2.182329047049442 0  2.331456616463011 -0.5285296485744057 0  3.654761904761905 0.5654761904761902 0  5.25 1.125 0  2.563673341677096 -2.280663329161452 0  5.126674107142857 0.1283482142857142 0  0.75 -3 0  0 -2.25 0  6 2.25 0  5.25 3 0  0.7680051888903191 -0.1384245958639337 0  1.617229471026718 -1.006949429867069 0  4.218940341429579 1.468686552856807 0  3.75 -3 0  2.25 -3 0  0.75 3 0  5.25 -3 0  6 -0.75 0  0 -0.75 0  0 0.75 0  2.25 3 0  6 -2.25 0  0 2.25 0  3.75 3 0  6 0.75 0  1.787573018358365 -2.279142327213878 0  3.195025188237337 2.273430909158844 0  2.528159645294386 1.151699106559287 0  1.041598427383826 1.322848427383826 0  1.520951704545454 0.4634232954545453 0  1.580357142857143 2.325892857142857 0  4.919642857142857 -1.361607142857143 0  4.54981623521892 -0.6483700862895494 0  2.99317863826574 0.6697091957925523 0  3.450169349029507 -0.4574865881858001 0  3.605016126014028 -1.323102984840902 0  2.745144658907412 1.882241931337371 0  0.4898065586600511 1.092777516238393 0  0.5 -1.875 0  1.217028489597945 -2.469323836800685 0  1.659912685567181 -1.604738056701542 0  5.4375 1.6875 0  5.34375 2.34375 0  4.52741779500503 2.384139265001677 0  3.375 -2.514804579549941 0  0.5446428571428571 -2.455357142857143 0  2.766554087216865 -1.745795909102064 0  4.525516559010988 0.1490283123570637 0  3.87554132162248 -0.8280516069565407 0  4.53622906132958 -1.76963146596888 0  0.4243951612903226 1.875 0  0.554851858345021 2.446861709948876 0  5.575604838709677 -1.875 0  5.445148141654979 -2.446861709948876 0  4.875 -2.575604838709677 0  1.440573466105381 1.721823466105381 0  2.193519495405082 1.631799415080963 0  5.472630128027442 -1.330813078900983 0  4.750126894286386 1.343813447143193 0  5.607142857142857 -0.375 0  2.625 2.607142857142857 0  0.3921763197810531 0.375 0  5.60901753622775 0.3750000000000001 0  1.125 2.613454943235572 0  3.701856738980915 1.163867513386733 0  3.736112850688509 1.696746876851408 0  3.519183195491339 0.06065128742606851 0  3.973620778217027 -1.693401606145563 0  0.8125 -1.444978632478633 0  1.256657745408029 -0.6381828923025001 0  0 -1.125 0  5.019997778514942 0.6475044429701156 0  4.125 3 0  1.285569332703024 0.8955310332120207 0  0 -0.375 0  0.4638922275641027 -0.5625 0  2.056635259780241 -0.07226025978024064 0  2.130475508371123 -1.000827820434028 0  2.677484372338113 -1.267299126394495 0  2.848680878891876 -0.4956836878192376 0  4.937901885089369 -0.3340245904575954 0  4.393563081308854 1.919544166973803 0  4.053859126323572 0.2813938488760716 0  1.181051704329518 0.1167440895674965 0  1.971354166666667 2.607142857142857 0  4.875 3 0  2.519350561152006 0.08093582719875507 0  3.139443301924015 -1.442524927271905 0  6 2.625 0  1.849169256239503 1.945480934753207 0  1.867196483071171 0.7892354369530077 0  1.192506522009051 -1.184888428863342 0  3.375 3 0  3.603234392481833 2.536866305538572 0  3.846752908916648 -2.537707634073423 0  2.014339897513945 -1.886932065281681 0  4.038392037966526 0.8363324773944992 0  4.421242701722609 -2.552534687860327 0  3.715389848650903 -2.108856956172843 0  2.985668138820625 1.127780908772207 0  0.4500794934449803 -1.173696061598557 0  3.366760888116476 0.8891914618875614 0  1.869163043700093 -0.6107175804171328 0  2.175114838273305 -2.53928723780967 0  3.014417665538299 -2.241523065744933 0  2.625 -3 0  2.819968145332426 -2.617202329573456 0  5.625 1.3125 0  5.563263538826679 0.814027077653358 0  5.625 3 0  2.550041671270923 0.7074928970804664 0  4.014583091741168 2.59891853892166 0  0.6440729668673318 1.499523832583132 0  5.219449799568244 -1.660557808485412 0  3.474012636702472 -0.9300738420779746 0  0.8125 -2.142857142857143 0  1.875 -3 0  4.945010515846405 2.554471797033147 0  2.611388969012422 -0.8478354915063726 0  3.223746055611014 0.3371683159691745 0  4.843939757110898 -0.9483610977948225 0  4.66556954816842 -2.220888354477256 0  4.125 -3 0  4.448108395110625 -0.2524000502731018 0  5.63671875 2.05078125 0  2.822484133964224 1.491327727709286 0  3.378213092764193 1.903125093887009 0  5.607142857142858 -0.9231200445788541 0  2.12639693023183 1.100450516019641 0  5.625 -3 0  0.375 3 0  0 2.625 0  6 -2.625 0  0.3931307155906299 -0.01856779822591927 0  0.7651723094668359 0.253768144801553 0  0.8549199714190221 -0.5218333744252657 0  1.421989550604507 -2.133299471886336 0  1.582611957351803 -2.615166692128227 0  4.420331038793115 1.133144382396504 0  0.375 -3 0  0 -2.625 0  5.078156723571596 1.54697017071479 0  1.877250715260938 -1.288801575378032 0  2.409169073010687 -1.916147168931784 0  1.146151077069952 -0.268000681695328 0  1.726784828652036 0.1335728643263411 0  2.745628549924675 0.3838821021397905 0  3.011490900297165 2.613625569196862 0  5.62463365164608 -4.137655439684362e-05 0  1.875 3 0  1.125 3 0  6 0.375 0  2.625 3 0  6 -1.125 0  6 -0.375 0  4.875 -3 0  6 -1.875 0  3.375 -3 0  1.125 -3 0  0 -1.875 0  0 0.375 0  0 1.125 0  0 1.875 0  6 1.125 0  6 1.875 0  4.813017731148975 0.9677363687196439 0  2.807371623148303 2.264962208227767 0  0.3692953377255688 0.7436406761680247 0  5.615625 2.615625 0  0.9395725521479794 0.9812935874921043 0  1.390920759130215 1.238984550166515 0  0.9588795022085095 1.672288500195331 0  0.87712392565124 -2.641031728267331 0  0.3665732993114588 -1.532068934251388 0  1.841944504733106 1.591700334213738 0  4.832970185136452 0.3385359233091246 0  4.169083540479082 -0.5746148619765254 0  5.281697083409333 -0.2046640461936881 0  4.072845380968044 1.784516523483641 0  1.293029195762321 -1.543079049035419 0  4.878733886054284 -1.720697370582964 0  3.609167475697567 -1.687579152754035 0  4.836981942878573 2.222259978217028 0  4.204938267037067 -0.9128589669335569 0  5.183079748175263 -1.111742407358677 0  1.22880920402559 2.273525645756405 0  1.469404041858679 2.654509729682302 0  4.566761045622856 -1.414165869120005 0  4.531680518427715 1.606803989975667 0  1.918929241273175 2.27471131819245 0  3.526908551984126 2.207147627530056 0  1.85683899811842 0.4533569963423589 0  1.173935704088662 0.4636872214645547 0  2.116602160898525 -2.207718541460878 0  4.51821874648995 -1.042568353750147 0  2.721551512787618 -0.1859357475290837 0  5.294921875 2.001953125 0  5.288671874999999 2.670703125 0  2.199940744527116 0.7756512213396931 0  4.090519467638897 1.163401080812838 0  2.298177083333333 2.670581371753247 0  2.484362362207526 -2.687319997637033 0  3.300530569898859 1.207053005217563 0  3.936078051808127 -1.362164062673065 0  5.341218841330105 0.5689885832563615 0  4.226314635599414 0.5638853401248238 0  2.524510956818563 1.635483567726497 0  0.3219546452225031 1.389066019009203 0  3.139061555368706 -0.3133905221155423 0  3.145569907612562 -0.6461828528638952 0  3.701427442033566 -0.2272880199383185 0  1.686782510365738 -1.934662341426927 0  2.427696494631844 1.944064773844184 0  3.901817839425732 1.422433381251312 0  2.356489883772755 -0.2025512972825912 0  4.820757576351118 -0.01647699434507374 0  3.064415631228375 1.809719380809516 0  4.643002705009462 2.69782572459795 0  4.31624250429496 2.728112685900672 0  1.520100694408069 -1.314302747998057 0  3.754559308601717 -0.5375020107416889 0  0.25 -2.0625 0  0.8125 -1.826636904761905 0  4.861738621091127 -0.6367294570749906 0  1.545149590740081 2.015832101819233 0  3.857113324620078 0.04127675193819436 0  0.2479605082936806 -0.9375 0  4.21293081604216 2.352874368135467 0  3.123697687162562 -2.708090473740421 0  3.415275466010259 -2.202892416689829 0  3.601103065320932 -2.727566580522146 0  1.558629964945672 -0.5289921609136927 0  3.324859026263307 -1.198136798699183 0  2.424350759683917 -1.092246517929194 0  2.746461744851735 0.9398108087856579 0  0.8882026075771248 2.364936378889839 0  0.8066140242673685 2.679750706449505 0  4.504454978490482 0.4491616076730165 0  4.26881784709759 -0.009649566552704852 0  1.3125 -2.75919801263958 0  1.120577805361368 -2.179971784090952 0  3.734048623985226 0.8602850349907256 0  3.527828882622877 1.432983527791925 0  1.959527908877504 -1.578124930685265 0  0.7602573574724077 1.220872343399509 0  0.6691217533356228 0.8531987603309893 0  1.877213035764122 -2.564340152892596 0  3.32172153715047 2.685939810104955 0  4.285565286275464 -1.569057178671076 0  4.227521511146333 -1.876903861267543 0  5.34375 1.40625 0  5.71875 1.59375 0  1.56245959534423 0.766197796710638 0  0.2458241530773257 2.4375 0  0.2794123857609179 2.138568368155198 0  5.754175846922674 -2.4375 0  5.720587614239082 -2.138568368155198 0  0.6472458227887359 2.124973059628837 0  5.124241021325378 -2.352544055105642 0  5.189172233440652 -2.675873509996353 0  5.364643151640443 -2.12768524739804 0  2.298896485720138 1.348573610321417 0  0.6008689899200503 -2.745193425346304 0  0.307092513690391 -2.651812055231556 0  0.2683745826107009 -2.363146293324415 0  0.5223214285714285 -2.165178571428571 0  0.3925308914031174 2.699891746740618 0  5.607469108596883 -2.699891746740618 0  2.138365140930822 1.917102089073091 0  1.25507379660067 1.953406658386351 0  4.135759889512124 -2.476847355718572 0  0.5330865684534913 -0.8980875812659357 0  2.548249345531056 -1.538893887888457 0  2.67686064875775
[...]
<CellData  Scalars="f_26-2"> 
<DataArray  type="Float64"  Name="f_26-2"  format="ascii">1.8392409767938895e+44   1.1776840116654451e+45   1.0745519761975807e+45   2.5904019026459536e+45   5.6544511171808112e+44   8.9266572007894800e+44   -4.4155907901914903e+44   3.0343770004561213e+44   -1.1360447523016307e+43   2.7253278705660515e+43   4.7319975787485923e+44   -1.0031904987410804e+45   -3.9293000171411281e+44   -9.1014847608108865e+44   -6.7185662888363741e+42   -2.2956785613693529e+44   -8.2142924223111781e+44   1.1847936079890098e+44   -1.8796496817379460e+44   -5.7276312886704571e+43   7.2450148592827711e+43   -3.1934925869269082e+44   -2.7706493107754165e+44   9.0110420974851413e+43   2.2961586532427392e+44   -9.1434864399731855e+43   1.4706847203145307e+45   1.9901788986696391e+44   2.5718516616142215e+44   -2.8897216627036313e+43   8.5434799860376658e+43   -4.9613466354860661e+44   -1.2123943301282377e+42   -9.1247891456354211e+44   6.7560079186686039e+44   6.3704194203985931e+44   -1.9744680251954019e+43   5.6387214051865474e+43   -7.2847798906713458e+44   1.7103381416039566e+44   3.3317913726266393e+44   -1.6733755511848080e+43   -4.8299753557202541e+44   -5.2160871008915413e+44   -1.5779342538938974e+45   -7.1507910596985102e+44   -6.3155605136972036e+44   -1.9869199049632100e+46   1.0891767084590071e+45   -8.9774448407430933e+44   9.5008507530765941e+44   -1.4641939029627617e+45   8.5246989409158778e+44   1.6876801433757141e+44   7.0110003189572270e+44   6.1909266568323913e+44   -1.1216335147596843e+45   -5.0875941597694824e+44   -2.9034914962246393e+43   -3.4905391766798294e+43   5.0780357858636822e+43   8.0139512752821675e+43   -4.9123750794630385e+43   -1.7205091182914318e+44   3.3952647595828391e+45   -6.3029343620299337e+45   4.5278732092141411e+43   -2.5466556211668647e+45   -1.4208454814396828e+44   3.7089574971199228e+44   -1.7822461433314001e+44   -7.0142430742022394e+44   2.3395323583385691e+44   2.7529353346596271e+44   -1.2615087935456655e+44   -3.6157950835023639e+44   9.1086972835955793e+44   5.4377760955678374e+43   -3.0312795549953221e+44   -6.0948522932427296e+42   -6.1438507419367220e+43   -3.4585186897693470e+43   -6.7414420113749073e+43   1.4349016819132641e+44   1.2240782257993801e+44   2.3534651132358742e+44   -9.0484355526051792e+43   1.9240459510038338e+43   -1.2673390127002065e+44   -2.3527842313502353e+44   5.9352149622975504e+43   -4.5381501025814925e+44   -1.7209133570269238e+44   3.9042526634880557e+43   1.1385402684547681e+44   9.6884660665582878e+43   -1.9387785820806697e+44   -2.7653725018798066e+44   -1.5191848567165458e+46   6.7333891519616609e+44   6.1749048010151153e+44   1.9540622414998392e+45   6.8503669977745703e+44   9.1679992817084181e+44   -2.7318418824815761e+44   -1.3826827057899270e+45   2.3975240246128756e+46   -3.7323857907503897e+44   -5.8326726091027589e+44   2.6260618681854969e+44   4.2137863922191569e+44   -4.2387364687963746e+44   -3.5646641515375356e+44   -1.1490570560547979e+44   -8.6667069375889857e+43   2.6672903924443629e+43   1.6879357740035642e+43   -2.2233227606682793e+44   -5.3423952453916542e+43   4.5682050924832046e+43   1.9105956445353505e+44   -1.8539910209476690e+43   -2.8150056692366946e+44   4.6475903931579678e+43   1.3131370925315026e+43   -1.9191860245117674e+43   -3.8256371755295719e+43   3.9573294192895051e+45   -5.3281179927118424e+42   -6.6653073851199538e+44   -1.2751406518121357e+45   3.1175002071104998e+44   2.4804489312174052e+45   -1.7192550978931309e+44   -2.4595695205420960e+44   -2.9993232416076409e+44   5.5152436903131554e+45   1.7490147829690550e+45   -2.9596603068262726e+44   -4.8905797103300499e+44   -4.1458688296592972e+44   -4.7273988734210821e+44   -3.3404977913767620e+44   -1.2778419458573557e+44   4.1096348347051306e+43   -8.8948926493869623e+42   1.2036982317414045e+45   5.8258375218173854e+44   1.5462688860209086e+43   5.8939589059484525e+44   -6.1495773026905020e+44   -1.6057131304837292e+45   -3.6318398059385829e+44   -5.8724939358853544e+44   1.1715612725430657e+43   -4.5186344829235843e+43   1.6943222238682739e+44   1.9667810816969243e+43   -7.5543373263693835e+45   -1.1507749329895532e+45   -1.1142845556115533e+46   3.8831484745975911e+44   2.0732071444297045e+44   2.8723104404398610e+44   3.1684442010977170e+44   2.6644999191217577e+44   2.3633160357623168e+44   4.0243857784944460e+44   9.0068612775464625e+43   4.7535042969268324e+43   -2.3373659225735724e+44   -2.9762769152162955e+44   -1.4022548704830724e+45   -1.4862986710255729e+45   -2.8616703221881594e+44   -1.5602564787042926e+44   3.4299888127153161e+44   5.6428523782921099e+44   3.9051174481062561e+44   1.9395523021540401e+45   1.1188049842327107e+46   1.8931202736296126e+45   2.9799334484172020e+43   -5.2340684469597036e+43   6.5102325698933588e+43   1.8662605407930324e+44   4.0477638689317679e+44   -1.0886925839123043e+45   -8.2505599178026471e+43   -2.1235501219451351e+43   -1.2581631156087660e+44   -1.1794667405904216e+43   6.8396715435126987e+44   8.0374453792954249e+44   4.8324832074341877e+44   6.1973355997448832e+44   7.9984427370515512e+45   1.3856347776854731e+45   5.6015893679878825e+43   4.9915471357039725e+44   5.2753482365536666e+44   -4.8100316888892630e+44   -5.6883067246669743e+44   -6.2427379767658841e+44   -3.5273776374430580e+44   3.1296687515948302e+43   7.2708373320633406e+43   -2.4954509466555450e+44   -1.7121534848139674e+44   3.0008755821192495e+44   6.3309193163303131e+44   -2.2684443805304658e+44   -2.1938343852564384e+44   2.8163325830087558e+44   3.8427151745971081e+44   -1.4191511852958744e+44   2.4523956358452659e+44   1.8308897167841160e+44   -6.8863576884777788e+44   -4.4314819263435970e+44   -3.5323068834501761e+45   -5.6054720334266647e+45   1.2745792159730701e+46   1.0257933527684594e+46   -1.2880757551711543e+44   1.6444132308831918e+46   1.6706814889627406e+46   -1.7192497246364224e+43   -7.5440739505646826e+43   1.4939583246583360e+46   7.2766470498602984e+45   -2.1494334739753873e+44   5.6672524956746454e+43   3.3854972689504536e+42   3.0141822097255185e+43   1.3444427761297997e+44   1.4736930726584952e+44   2.2691050092758992e+45   -3.5145921588769207e+44   -8.6503106459133492e+45   -1.5890156702717255e+46   -1.8605611041260959e+45   -2.0552473745339108e+45   4.8590260987612818e+44   3.7267415827429114e+44   -1.7295969452623993e+44   1.6463994839023113e+43   -1.6976539351469380e+43   -1.0696851998846551e+44   -2.3171875502410507e+43   8.0473871483388778e+42   -2.5381242136470048e+45   -2.6157406181350546e+44   -2.5885329483847131e+44   -1.0124702128371336e+44   1.3674537379455134e+46   -6.1666666337703058e+43   -1.7725858150464113e+44   -2.0942181196332328e+44   -3.3150146938107233e+44   1.4973160115749115e+44   -1.9499972002580834e+44   -9.4612940632327220e+43   3.2553934386631106e+43   -4.2242402178241802e+44   -1.0186208294344275e+45   -1.7450740324275514e+44   7.4409047445130992e+44   -1.5305822270507399e+44   -2.4755169325138330e+44   -3.1320119302570057e+44   7.1474032172950570e+43   -3.9810917629333827e+45   -1.2630899030217850e+44   2.2110181607238420e+44   1.8502902794600553e+44   -1.3307884867382689e+45   3.8990366085927262e+44   1.1090047471841251e+45   1.5306345069254800e+45   -4.0573178913364592e+45   -2.9905878773031814e+44   -6.3834134065413205e+44   -6.1888396758960079e+44   -3.6024901418351880e+46   -1.5720455058133423e+46   -3.5041867427247354e+46   -2.0731440416751340e+45   -5.1369267308853705e+44   -1.8684669804063164e+45   7.7888824207802880e+44   1.0659453244011926e+45   2.8901368989199920e+44   2.2713746004156458e+44   4.4564101232250627e+44   2.1772300253432803e+44   2.1994795556669584e+44   2.8709412505930790e+44   -3.8055718158445557e+43   -8.9095512345285101e+43   6.1179881760026381e+45   2.7657904427485165e+45   6.1934188854800144e+43   7.6212623175934255e+45   4.8861336480418194e+44   3.1149117975429714e+45   5.5974932607692026e+44   7.6159045032194303e+44   3.8902483274451092e+45   1.0431296508370093e+46   3.0980355344261527e+44   6.0043285582395448e+45   5.9561009948595320e+44   1.5647147860706816e+45   3.0972044985428372e+45   2.6761879002518782e+45   -7.1051074631889539e+44   -4.8157457922387374e+45   2.6888117870358514e+44   4.6099224125932001e+44   -7.1517705103130714e+43   -3.2008710050460730e+45   -1.5561884342724612e+45   -2.9331384208268206e+46   -6.0669108992108971e+45   -7.0537754986504691e+45   -6.7673114520142537e+45   -8.7363990315111765e+44   -1.7336324325163729e+44   -1.7751157385647321e+45   -3.3107688721720423e+44   -5.7506152933717865e+44   5.6973162515800150e+45   1.3484284759014523e+46   1.3148447833140817e+46   6.5866058470442877e+45   -8.6837536028847924e+44   -7.3033731794041984e+44   -1.4704519539933660e+44   -1.3291578214660039e+44   -4.8817302905355070e+45   -2.2841913030869732e+45   1.9605661712688836e+46   9.7492321612337597e+45   1.2284715181110559e+44   4.7564737249883057e+43   1.4808419700748176e+43   2.2673673464591628e+43   3.6548641255181105e+43   3.0770814430246055e+43   -1.6576606774937491e+46   -7.7279674813893191e+45   -9.9973844944980548e+45   -4.8563466452398444e+45   -5.0890010064374012e+43   -6.3519651950173244e+43   -4.1865768001110446e+44   -2.9642192932922678e+44   -1.6431808682748329e+44   -1.9405016512438384e+44   2.6355876717930017e+44   -1.6200313252326828e+44   -4.7133122136739784e+44   -8.0583789533243403e+44   1.2488736928749233e+45   1.6630044650480608e+45   -3.5165009150237904e+43   9.2247679266337406e+42   1.5630958806715876e+44   1.7411991035264299e+44   -1.6138160654911671e+45   -1.7328414589470470e+45   -8.5854721170980943e+43   3.3773243860304760e+43   -1.9699234653139519e+44   -1.1972282897764722e+44   4.4384588203436047e+43   -6.6903417705108767e+43   4.0589935975473636e+45   1.5474183814374887e+45   -4.0046196755822445e+43   -5.1552864079472264e+43   -9.5912610759990610e+44   -1.0167889322559703e+45   -1.1421022972314989e+43   1.1611359942800142e+44   -4.0271777145997437e+44   -1.8114548959399787e+44   1.8026331914040567e+44   1.2939871850882331e+44   5.8170203857179353e+43   1.2565009093125526e+44   5.8367459630776444e+44   -4.1780873717498186e+45   -4.8126328154029325e+43   -1.1813273035183543e+44   1.5715615542238261e+44   8.9581104784131711e+43   -1.5903053508886120e+45   -1.3895238687999700e+45   9.0659328028256982e+45   1.8299231464886893e+46   6.8793324491101661e+43   1.2417867094655565e+43   -7.2976013937836372e+44   -5.7983683892915566e+44   1.9903228990962410e+45   3.5081301553406298e+45   -9.4545892829826003e+45   -7.0670315035475913e+45   -3.5550305313972204e+44   -4.2109430885057788e+44   7.0139214616008522e+43   1.1460297090297778e+44   -3.4616448476016979e+44   -1.4430058707155154e+44   -4.6541586602761996e+44   -5.1328011303532232e+44   -4.8625043650097707e+43   -1.0479850624819310e+44   -3.2025528721818025e+45   -7.1088273537459523e+44   -5.7500962296193434e+43   -7.5522416174501225e+41   9.1088827633771088e+43   5.6301056328445573e+43   -1.2344802094167848e+44   -1.1893902236451375e+44   7.9656051803161132e+44   8.1064828185291792e+44   -1.1622099015930497e+44   -2.8025450191426305e+43   -6.5679653401357924e+44   -5.3606275848381541e+44   1.6455271241318764e+44   2.4512512523446812e+44   -3.5807938064391162e+44   -3.7577593298420353e+44   -2.2501247022695991e+44   -2.5764327786479173e+44   6.5784379855102474e+44   9.6547398318777009e+44   1.2889274206796120e+46   5.5075610054852008e+45   8.9991930201843690e+44   8.4081830561589987e+44   2.1819118720365328e+43   -3.3821373882905945e+42   -1.3047141756748544e+45   -4.9201937160468514e+44   2.2217386928713003e+45   2.1796822746176919e+45   -1.9784968348139700e+44   -2.3860825895593851e+44   4.8895508285014424e+43   4.6939011527009070e+43   -2.8717157109522738e+44   -2.0895152869371387e+44   -9.4587497461451612e+44   -4.2165105973563196e+45   -1.0194412823860043e+45   -1.1597574125036598e+45   -5.3807044321391511e+45   -8.7788607898163912e+44   1.4138703925429548e+44   -8.2854640939813616e+43   -2.5607079673394631e+45   -4.8221807552964437e+45   4.4431611154448002e+44   5.0332628563466681e+44   2.5284660485313145e+44   1.8788834610729591e+44   6.5605620607092707e+44   4.5989421651246927e+44   -1.7824956195258540e+44   -1.1015514697070705e+44   1.1089614971322576e+44   2.7890598736784553e+43   7.6587998967473916e+43   -7.8559336553621141e+43   -4.4655825423915827e+44   -5.3158750349644365e+44   -2.7386524748079743e+44   -2.8641531020994857e+44   -6.6039916937771480e+45   -1.2065969812490141e+45   1.6160631177341878e+45   1.8832461655250495e+45   -3.8456497991217845e+44   -3.5392426749886807e+44   -3.4733076055450809e+44   -4.0014905843303258e+44   7.3347024432760667e+44   8.3299114812309766e+44   7.5112536114244097e+43   5.8562865872238752e+43   4.4283908004101094e+43   -2.9103916568117721e+43   -1.9555331426414854e+44   1.2452613489373303e+44   1.0614525187480335e+46   4.6490028024610289e+45   1.7696916513715888e+43   -1.4578622980569088e+43   -1.3884971983122031e+43   1.0430666591104007e+43   -1.1742521263759709e+45   -9.8462294616772501e+44   6.4707229407121447e+45   1.1942029929769327e+45   1.1082660293007273e+44   1.4094664137918621e+44   -1.0879039612772970e+44   -1.6897632139080058e+44   -1.2601828481974596e+45   -7.9505007403135655e+44   5.2086650173337386e+43   2.0303275428915070e+44   1.0514124103968694e+45   7.1488296279294723e+44   2.3156887453994300e+43   2.2415358078569002e+43   2.0170039291055506e+44   1.0491839016684295e+44   -5.9852042188836856e+43   9.3060061707625245e+43   1.8392278671933079e+44   3.0851765457045738e+44   -1.6967000615159718e+44   -1.3669451523648548e+44   -1.1294242242598288e+46   -5.0033207221209218e+44   -2.7785087054770686e+46   -1.5386194018766119e+46   -1.3059858769168990e+45   -1.1739832730229650e+46   2.7749102779831906e+45   2.1624208270828131e+45   2.5925539915924614e+44   1.6583556934182523e+44   -4.1589318924812790e+44   -6.3215412559671337e+44   -5.1700302736417175e+43   -6.4305908700390431e+43   2.4471678998807020e+43   2.9501475119600202e+43   -7.5732307741846613e+43   1.6331748824854148e+43   5.9619259117931866e+44   3.1474778382403826e+44   4.8573398348030188e+44   4.0971611336661210e+44   3.2289126058595190e+44   3.3651205343035984e+44   2.3697541527768952e+44   2.8280950920810432e+44   -1.1357958980874305e+44   2.5672345858748667e+43   -3.9855529594529360e+44   -3.4669423930311748e+44   -2.8189908768391987e+44   -3.1344177355761634e+44   2.4963842423431356e+44   2.7554860217102640e+44   -3.3925112111538131e+43   -3.6226118655914333e+42   8.6391356041787196e+44   2.0389049130820720e+45   -1.0276201052692782e+45   -2.8422526713100580e+45   -3.0882640807537986e+45   -1.0029028047209210e+45   2.2408706084792111e+45   4.8857964853492138e+44   3.5015719046717903e+44   8.7353140088762181e+45   1.1982997666926223e+45   1.4388563113465216e+45   3.1077186311642629e+43   1.9093212511183457e+43   -2.8202195103897410e+43   -6.6883178047344614e+42   -5.5758467827983875e+43   -7.2562512199148461e+42   -7.1829218580484581e+44   -6.6458724672081060e+44   1.1442781814588400e+44   1.8092732005953361e+43   4.8267222240721713e+43   8.2910259656340882e+43   -2.2680908192684982e+44   -1.8593548167168033e+44   6.0337606724785010e+44   2.8088400982289319e+44   2.6101222681648263e+42   2.7910469344852279e+43   7.1103810375889427e+43   8.1739535934555956e+43   -5.9291091509943767e+44   -6.6570157691130784e+44   6.7553975391458593e+44   6.9392927797436744e+44   -2.6691596741033959e+43   9.0316016652901678e+42   -4.1646705147428977e+45   -1.6592794070283958e+45   7.8795090859498186e+44   7.7198011511068945e+44   1.0719053145162544e+44   1.8773324828741733e+44   5.1227948621539856e+45   2.6488110410640663e+45   -2.1425899669886671e+45   -6.4260760567648353e+45   -3.2904095620301061e+44   -2.9621175140742554e+44   3.1926451817665220e+44   3.8447410643668012e+44   -1.3299469324180264e+45   -1.5322635480524664e+45   -1.1336599713287818e+45   -1.1676582472520824e+45   -7.4243583375296025e+42   -3.1443499732399738e+43   1.3202481033895712e+45   2.8249736797266071e+45   -8.2064174744895959e+43   3.6243361861427076e+43   -3.1566624356478451e+45   -1.0191093246819324e+45   -1.4847263475386207e+43   1.4294771775229087e+44   1.4091940323412400e+45   7.4458825215515460e+44   3.8511787712596672e+44   3.8506513663929004e+44   -2.3408708714035016e+45   -4.5757187033119808e+45   -1.3836353123777659e+45   -1.4668283417034057e+45   -1.8612995719380999e+45   -5.7368449770808496e+44   1.9655049835850269e+45   6.1402930273212167e+45   -6.2552880776461211e+43   -1.0227385436287904e+44   4.5832564545743262e+44   1.9026582135997760e+45   9.6060922575145791e+44   8.6228787568777851e+44   1.5209239660277703e+45   1.4498464959349672e+45   1.6970868358748575e+45   1.9187430444716919e+45   1.4704241463410630e+45   4.4466287714067818e+45   -7.5024938510774378e+44   -1.9040226557523769e+45   -3.2998004497262900e+45   -7.5694297608116473e+45   1.8530878974426914e+45   1.1288541666554417e+45   3.6578139307977418e+45   1.4594709525628019e+45   5.9330336217033759e+46   5.8895547329016038e+46   -4.8790785741888296e+44   -4.9751255912109884e+44   -4.6087674499374368e+44   -3.8345810794749636e+44   2.7731106476333292e+44   2.6265286849194376e+44   8.6081151010191701e+45   2.3546279542133964e+45   -1.1472472424414439e+45   -9.2900241981320601e+44   -9.8912376095656371e+42   -2.6123209261159160e+43   -2.0706636481450996e+44   1.4795334263150567e+43   -2.7663541607827648e+43   -8.6026809637078172e+43   -3.5903304111423909e+45   -1.4581049309471054e+45   2.7868995153058346e+45   2.1020249574308302e+45   -2.0441168226536769e+45   -1.9524543032202550e+45   1.7574258748284081e+44   1.2664939679142568e+44   2.7326673296124296e+44   2.1698517838980656e+44   1.1242177320080282e+43   2.7265729649903933e+43   1.5975946207071380e+44   1.3122787054709628e+44   7.1941464033333877e+44   7.6891841922354116e+44   5.7436147224858611e+44   6.1442140321010417e+44   5.6505793592401030e+44   5.3931933641316930e+44   4.4205885940207413e+44   5.1107868287480995e+44   -8.4440268393261176e+43   -8.0318161427494994e+43   -1.0226533284027239e+44   9.7571352995178002e+42   </DataArray> 
</CellData> 
</Piece>
</UnstructuredGrid>
</VTKFile>