<?xml version="1.0"?>
<VTKFile type="UnstructuredGrid"  version="0.1"  >
<UnstructuredGrid>
<Piece  NumberOfPoints="2534" NumberOfCells="4892">
<Points>
<DataArray  type="Float64"  NumberOfComponents="3"  format="ascii">0 3 0  0 -3 0  6 -3 0  6 3 0  3 -3 0  6 0 0  3 3 0  0 0 0  3 0 0  0 -1.5 0  1.5 -3 0  1.5 3 0  0 1.5 0  6 -1.5 0  4.5 -3 0  6 1.5 0  4.5 3 0  4.25 -1.25 0  1.75 1.25 0  2.25 -1.5 0  4.5 0.75 0  1.541666666666667 -0.2083333333333333 0  3.219827586206896 1.521551724137931 0  1.125 -1.875 0  4.875 1.875 0  0.8702651515151515 0.631628787878788 0  2.25 2.214285714285714 0  3.316176470588236 -1.904411764705882 0  5.214285714285714 -0.75 0  5.03125 -2.03125 0  0.96875 2.03125 0  4.041666666666667 -0.2083333333333333 0  0.8205128205128206 -0.9134615384615387 0  3.942582294752138 2.189194098250713 0  3.061487638533674 -0.968243819266837 0  2.192708333333333 0.4427083333333334 0  4.157850026972511 -2.182329047049442 0  2.331456616463011 -0.5285296485744057 0  3.654761904761905 0.5654761904761902 0  5.25 1.125 0  2.563673341677096 -2.280663329161452 0  5.126674107142857 0.1283482142857142 0  0.75 -3 0  0 -2.25 0  6 2.25 0  5.25 3 0  0.7680051888903191 -0.1384245958639337 0  1.617229471026718 -1.006949429867069 0  4.218940341429579 1.468686552856807 0  3.75 -3 0  2.25 -3 0  0.75 3 0  5.25 -3 0  6 -0.75 0  0 -0.75 0  0 0.75 0  2.25 3 0  6 -2.25 0  0 2.25 0  3.75 3 0  6 0.75 0  1.787573018358365 -2.279142327213878 0  3.195025188237337 2.273430909158844 0  2.528159645294386 1.151699106559287 0  1.041598427383826 1.322848427383826 0  1.520951704545454 0.4634232954545453 0  1.580357142857143 2.325892857142857 0  4.919642857142857 -1.361607142857143 0  4.54981623521892 -0.6483700862895494 0  2.99317863826574 0.6697091957925523 0  3.450169349029507 -0.4574865881858001 0  3.605016126014028 -1.323102984840902 0  2.745144658907412 1.882241931337371 0  0.4898065586600511 1.092777516238393 0  0.5 -1.875 0  1.217028489597945 -2.469323836800685 0  1.659912685567181 -1.604738056701542 0  5.4375 1.6875 0  5.34375 2.34375 0  4.52741779500503 2.384139265001677 0  3.375 -2.514804579549941 0  0.5446428571428571 -2.455357142857143 0  2.766554087216865 -1.745795909102064 0  4.525516559010988 0.1490283123570637 0  3.87554132162248 -0.8280516069565407 0  4.53622906132958 -1.76963146596888 0  0.4243951612903226 1.875 0  0.554851858345021 2.446861709948876 0  5.575604838709677 -1.875 0  5.445148141654979 -2.446861709948876 0  4.875 -2.575604838709677 0  1.440573466105381 1.721823466105381 0  2.193519495405082 1.631799415080963 0  5.472630128027442 -1.330813078900983 0  4.750126894286386 1.343813447143193 0  5.607142857142857 -0.375 0  2.625 2.607142857142857 0  0.3921763197810531 0.375 0  5.60901753622775 0.3750000000000001 0  1.125 2.613454943235572 0  3.701856738980915 1.163867513386733 0  3.736112850688509 1.696746876851408 0  3.519183195491339 0.06065128742606851 0  3.973620778217027 -1.693401606145563 0  0.8125 -1.444978632478633 0  1.256657745408029 -0.6381828923025001 0  0 -1.125 0  5.019997778514942 0.6475044429701156 0  4.125 3 0  1.285569332703024 0.8955310332120207 0  0 -0.375 0  0.4638922275641027 -0.5625 0  2.056635259780241 -0.07226025978024064 0  2.130475508371123 -1.000827820434028 0  2.677484372338113 -1.267299126394495 0  2.848680878891876 -0.4956836878192376 0  4.937901885089369 -0.3340245904575954 0  4.393563081308854 1.919544166973803 0  4.053859126323572 0.2813938488760716 0  1.181051704329518 0.1167440895674965 0  1.971354166666667 2.607142857142857 0  4.875 3 0  2.519350561152006 0.08093582719875507 0  3.139443301924015 -1.442524927271905 0  6 2.625 0  1.849169256239503 1.945480934753207 0  1.867196483071171 0.7892354369530077 0  1.192506522009051 -1.184888428863342 0  3.375 3 0  3.603234392481833 2.536866305538572 0  3.846752908916648 -2.537707634073423 0  2.014339897513945 -1.886932065281681 0  4.038392037966526 0.8363324773944992 0  4.421242701722609 -2.552534687860327 0  3.715389848650903 -2.108856956172843 0  2.985668138820625 1.127780908772207 0  0.4500794934449803 -1.173696061598557 0  3.366760888116476 0.8891914618875614 0  1.869163043700093 -0.6107175804171328 0  2.175114838273305 -2.53928723780967 0  3.014417665538299 -2.241523065744933 0  2.625 -3 0  2.819968145332426 -2.617202329573456 0  5.625 1.3125 0  5.563263538826679 0.814027077653358 0  5.625 3 0  2.550041671270923 0.7074928970804664 0  4.014583091741168 2.59891853892166 0  0.6440729668673318 1.499523832583132 0  5.219449799568244 -1.660557808485412 0  3.474012636702472 -0.9300738420779746 0  0.8125 -2.142857142857143 0  1.875 -3 0  4.945010515846405 2.554471797033147 0  2.611388969012422 -0.8478354915063726 0  3.223746055611014 0.3371683159691745 0  4.843939757110898 -0.9483610977948225 0  4.66556954816842 -2.220888354477256 0  4.125 -3 0  4.448108395110625 -0.2524000502731018 0  5.63671875 2.05078125 0  2.822484133964224 1.491327727709286 0  3.378213092764193 1.903125093887009 0  5.607142857142858 -0.9231200445788541 0  2.12639693023183 1.100450516019641 0  5.625 -3 0  0.375 3 0  0 2.625 0  6 -2.625 0  0.3931307155906299 -0.01856779822591927 0  0.8549199714190221 -0.5218333744252657 0  0.7651723094668359 0.253768144801553 0  1.421989550604507 -2.133299471886336 0  1.582611957351803 -2.615166692128227 0  4.420331038793115 1.133144382396504 0  0.375 -3 0  0 -2.625 0  5.078156723571596 1.54697017071479 0  1.877250715260938 -1.288801575378032 0  2.409169073010687 -1.916147168931784 0  1.146151077069952 -0.268000681695328 0  1.726784828652036 0.1335728643263411 0  2.745628549924675 0.3838821021397905 0  3.011490900297165 2.613625569196862 0  5.62463365164608 -4.137655439684362e-05 0  1.875 3 0  1.125 3 0  6 0.375 0  2.625 3 0  6 -1.125 0  6 -0.375 0  4.875 -3 0  6 -1.875 0  3.375 -3 0  1.125 -3 0  0 -1.875 0  0 0.375 0  0 1.125 0  0 1.875 0  6 1.125 0  6 1.875 0  4.813017731148975 0.9677363687196439 0  2.807371623148303 2.264962208227767 0  0.3692953377255688 0.7436406761680247 0  5.615625 2.615625 0  0.9395725521479794 0.9812935874921043 0  1.390920759130215 1.238984550166515 0  0.9588795022085095 1.672288500195331 0  0.87712392565124 -2.641031728267331 0  0.3665732993114588 -1.532068934251388 0  1.841944504733106 1.591700334213738 0  4.832970185136452 0.3385359233091246 0  4.169083540479082 -0.5746148619765254 0  5.281697083409333 -0.2046640461936881 0  4.072845380968044 1.784516523483641 0  1.293029195762321 -1.543079049035419 0  4.878733886054284 -1.720697370582964 0  3.609167475697567 -1.687579152754035 0  4.836981942878573 2.222259978217028 0  4.204938267037067 -0.9128589669335569 0  5.183079748175263 -1.111742407358677 0  1.469404041858679 2.654509729682302 0  1.22880920402559 2.273525645756405 0  4.566761045622856 -1.414165869120005 0  4.531680518427715 1.606803989975667 0  1.918929241273175 2.27471131819245 0  3.590183783343969 2.184680610175416 0  1.85683899811842 0.4533569963423589 0  1.173935704088662 0.4636872214645547 0  2.116602160898525 -2.207718541460878 0  4.51821874648995 -1.042568353750147 0  2.721551512787618 -0.1859357475290837 0  5.294921875 2.001953125 0  5.288671874999999 2.670703125 0  2.199940744527116 0.7756512213396931 0  4.090519467638897 1.163401080812838 0  2.298177083333333 2.670581371753247 0  2.484362362207526 -2.687319997637033 0  3.300530569898859 1.207053005217563 0  3.936078051808127 -1.362164062673065 0  5.341218841330105 0.5689885832563615 0  4.226314635599414 0.5638853401248238 0  2.524510956818563 1.635483567726497 0  0.3219546452225031 1.389066019009203 0  3.139061555368706 -0.3133905221155423 0  3.145569907612562 -0.6461828528638952 0  3.701427442033566 -0.2272880199383185 0  1.686782510365738 -1.934662341426927 0  2.427696494631844 1.944064773844184 0  3.901817839425732 1.422433381251312 0  2.356489883772755 -0.2025512972825912 0  4.820757576351118 -0.01647699434507374 0  3.064415631228375 1.809719380809516 0  4.643002705009462 2.69782572459795 0  4.31624250429496 2.728112685900672 0  1.520100694408069 -1.314302747998057 0  3.754559308601717 -0.5375020107416889 0  0.25 -2.0625 0  0.8125 -1.826636904761905 0  4.861738621091127 -0.6367294570749906 0  1.545149590740081 2.015832101819233 0  3.857113324620078 0.04127675193819436 0  0.3162874907704933 -0.864918315983958 0  4.21293081604216 2.352874368135467 0  3.123697687162562 -2.708090473740421 0  3.415275466010259 -2.202892416689829 0  3.601103065320932 -2.727566580522146 0  1.558629964945672 -0.5289921609136927 0  3.324859026263307 -1.198136798699183 0  2.424350759683917 -1.092246517929194 0  2.789248065239812 0.8954629970670158 0  0.8882026075771248 2.364936378889839 0  0.8066140242673685 2.679750706449505 0  4.504454978490482 0.4491616076730165 0  4.26881784709759 -0.009649566552704852 0  1.313479173834523 -2.758675889510418 0  1.120577805361368 -2.179971784090952 0  3.734048623985226 0.8602850349907256 0  3.527828882622877 1.432983527791925 0  1.959527908877504 -1.578124930685265 0  0.7602573574724077 1.220872343399509 0  0.6691217533356228 0.8531987603309893 0  1.877213035764122 -2.564340152892596 0  3.304349402914068 2.552016594979913 0  4.285565286275464 -1.569057178671076 0  4.227521511146333 -1.876903861267543 0  5.34375 1.40625 0  5.71875 1.59375 0  1.56245959534423 0.766197796710638 0  0.2458241530773257 2.4375 0  0.2794123857609179 2.138568368155198 0  5.754175846922674 -2.4375 0  5.720587614239082 -2.138568368155198 0  0.6472458227887359 2.124973059628837 0  5.124241021325378 -2.352544055105642 0  5.189172233440652 -2.675873509996353 0  5.364643151640443 -2.12768524739804 0  2.298896485720138 1.348573610321417 0  0.6008689899200503 -2.745193425346304 0  0.307092513690391 -2.651812055231556 0  0.2683745826107009 -2.363146293324415 0  0.5223214285714285 -2.165178571428571 0  0.5169611136983336 2.740349995819724 0  5.607469108596883 -2.699891746740618 0  2.138439274270545 1.947386893596098 0  1.25507379660067 1.953406658386351 0  4.135759889512124 -2.476847355718572 0  2.548249345531056 -1.538893887888457 0  2.771010284190282 -2.05339728351
[...]
<CellData  Scalars="f_26-2"> 
<DataArray  type="Float64"  Name="f_26-2"  format="ascii">-5.9143579579519695e+01   -1.5907268086580334e+03   9.1198950031976460e+02   -6.0471286037537891e+02   -8.9150741754110811e+02   -2.5796379307954618e+02   3.3393583194449565e+02   -3.2511844475340538e+01   -2.4026396389568290e+03   -4.4049635625566822e+01   -4.8515283533066537e+02   1.0712441465608101e+03   -2.1549901033075485e+03   8.5566484646928211e+02   1.9861307767109861e+03   -7.1993505242646836e+02   -1.1362365798445655e+03   3.2335614209002222e+02   -4.3996805864105761e+02   1.0599289921404547e+03   6.0852151453326826e+02   -5.8408163350579775e+02   -9.3233421139751533e+02   -1.6429779916856448e+03   -2.8172256552527330e+02   -1.1720789461367726e+03   -6.4806640132294365e+02   7.8396301362540851e+02   1.0549066611747637e+02   -1.4126742717526561e+03   -1.2103010084066727e+03   -2.7432321474464652e+03   -1.0629670916878674e+03   -1.6695954997004260e+03   -1.0817621294019559e+03   3.5850692454273502e+02   2.5413703140672993e+02   -4.4166886358132268e+02   -1.3578015981082901e+03   2.6289528273398071e+02   -5.0005828032644509e+01   3.2643733111275873e+02   1.4266126471418338e+03   1.4597995984774532e+03   6.0822131337923781e+02   1.0038195874916865e+03   1.3694671547026696e+03   -1.3666309194303867e+03   1.1761772425048332e+03   1.1958550203979150e+03   1.0523968989127720e+03   -4.2578656309980772e+02   -9.2036064563346463e+02   1.1117421460397982e+03   -1.3130418628435990e+02   1.1436783150361994e+03   4.4884007766846031e+02   1.5988045310805849e+03   -2.4061210218834694e+03   -5.4120146334995513e+02   7.6646379406965366e+02   -2.5425180207837243e+03   2.3821525899164865e+02   -1.5277042301406058e+02   -7.7922981045543679e+02   -1.8275465866261831e+02   -3.2905887007177666e+03   -1.4678961557643090e+03   1.3193279024061471e+03   -1.0673224553383475e+03   5.2831641620541143e+02   -4.1921774565152253e+02   -1.5330083117346483e+03   -9.2165758131572727e+02   3.2907284426892112e+01   -6.5752245498237346e+02   3.9334760889753682e+02   9.1548664092801982e+02   -5.4070456660784942e+02   -1.5203147014794827e+03   -4.5768386443859754e+02   -1.6744351679885312e+02   2.7275870250367348e+02   8.0794087605204243e+02   -1.4403884042732466e+03   2.0586530516276980e+03   -2.3605189147868975e+02   -7.2003698264258708e+02   8.4823757598298675e+02   1.0163272282774534e+03   -1.8248329190935262e+03   -7.1262436722118207e+02   -6.2996733339450763e+01   -4.8779287997445880e+02   -5.4768245848366075e+02   -8.5858947912428255e+02   -5.8012665989038544e+02   1.2621285009748278e+03   7.2521648613262414e+02   -2.5745227697722424e+02   1.6226557671883270e+03   9.0295168974813487e+02   -4.5047052111152607e+02   -2.2698634598381130e+01   -5.7365856606990087e+02   -2.4120495454410616e+03   -6.8256460188641302e+02   -7.0894657787893755e+02   -5.7544500947254349e+01   2.3102456149288801e+02   -8.6970905696629117e+01   7.3821420115303022e+02   1.9567766457323299e+02   2.4279692668625074e+01   -3.8776220811969620e+03   -1.1948447121592878e+03   1.0439748949385842e+02   9.3231327883422665e+01   -3.8198418905818744e+02   -2.0404748560855417e+03   6.5411612053615113e+02   -1.0040443677282040e+03   5.1808787602182531e+02   -5.2046080460184794e+02   -5.0365134419077123e+02   -1.0437363507332439e+03   7.1936848519763430e+02   -4.9280144125971339e+02   -3.5372804418605674e+03   -1.2741218677201500e+03   -7.4983126348490839e+02   -1.7979594105189847e+00   -1.5734513088327872e+03   -1.2572545517923149e+03   -8.8379373740502558e+02   -3.7322331525840934e+02   -4.9461622259380266e+02   -3.2046091514125641e+02   -4.4966411564465795e+02   -4.4629570541005597e+02   -7.1800669930066294e+02   2.4340161686335395e+02   1.5757752001108645e+03   -2.0263855541172410e+02   -1.3860059793303487e+03   -3.4128444800644297e+02   3.5648084114036214e+02   -1.5106896480352054e+03   -7.0801990831914372e+02   2.9899213695037867e+02   -6.5157944791909188e+02   -6.9340524435992484e+02   -8.4907495812880853e+01   3.1354091881138407e+02   5.2537156418083305e+02   4.2039501062450597e+01   8.1255679758658709e+02   -4.1392406943584092e+02   5.6850184036333610e+02   3.0773815129882337e+02   -2.5965221924656896e+02   2.1185115478873672e+03   2.0137029809605212e+03   -8.4372433754277256e+02   7.1597546881560629e+02   5.9196215936810040e+02   -2.2077504856696527e+02   -8.8895442311953275e+02   -8.1531304856534780e+02   2.2156437345916444e+02   -3.3225478516107650e+01   -9.0768566051605376e+02   -1.5335283625407922e+03   1.1690093480105091e+02   -6.8721739467967552e+02   -7.2125186326373040e+01   -3.1255184959139406e+03   -1.4098107502690798e+03   -1.8502078518960122e+03   -1.7783650964584649e+02   2.7089894623192021e+02   -9.8117835903306343e+02   6.0847628904077237e+02   -6.0243599100648805e+02   -4.6764011976155189e+02   -7.2792918486701865e+01   -9.3898239635475511e+02   -3.0808514501950759e+02   -1.3725074511044377e+03   3.1749347339635216e+02   -4.7997741561507559e+02   -1.8332131124137156e+03   -1.8917807754294872e+03   1.9620170255975647e+03   7.0342618483522631e+02   1.0984980426582140e+03   -2.9324203717108611e+02   5.2158474169207125e+02   -1.1984578167780105e+03   -3.2133226943251634e+02   -9.9959028887723434e+02   -6.3999183216728841e+02   2.4744685309676200e+02   5.5592605300926425e+02   3.0652821164730653e+02   -1.2895555188030104e+02   -2.6811544233086615e+03   -2.1306185283971573e+02   -2.4286878806005175e+03   -1.2520555555433593e+03   8.7840717575770600e+02   8.8403928681980960e+02   4.3931032582218393e+01   -9.1265865454852189e+02   9.3868443508358905e+02   1.8196754301806772e+02   5.8896632706102514e+02   4.4063492369498118e+02   1.9804880343669436e+03   -1.1915018917830400e+03   -4.5594387376913022e+02   -2.2791958645645850e+03   -1.5835009714363632e+03   3.5746239627343226e+02   -3.0130722693720907e+02   1.7320254101644525e+02   3.8258463965902700e+02   4.7352639740410689e+02   -1.6803233510507314e+02   1.0840712599431361e+03   1.1772480533230255e+03   -1.8220087535865462e+03   -2.0966264341532569e+03   -1.1743791508046440e+03   -7.5852278790727826e+02   -7.3659139849614394e+02   8.0595445275338011e+02   2.6673345547549042e+02   -1.3020748939749838e+03   -6.7833610324450058e+02   -1.0026908995953888e+03   -2.1944211554962280e+02   1.5640927172017928e+02   3.0998000429587893e+01   -1.2853211274139853e+03   4.7496286796038271e+02   -1.7312715635976358e+03   2.8205434555658644e+02   -7.4895369324582973e+01   1.3082273899402912e+02   -8.7184203392945187e+02   -2.0030761650202408e+03   -1.3578232456547053e+02   5.4421959947555285e+02   -1.7594654988880816e+03   -1.4106098518425508e+03   9.4116853546952175e+00   -3.0011246971980845e+03   -6.4869535268561287e+02   -6.6941543635760172e+02   1.6688497085625700e+03   6.3945440801669895e+02   9.4999477274864364e+02   4.3524439585683336e+02   1.7917599580858762e+03   1.3783397138093824e+03   1.5084201017250061e+03   -1.1866543987616731e+03   -2.6993345965995254e+03   6.8639181735586715e+02   1.5969683090099807e+03   -1.2563241768546495e+03   -1.5003352469903978e+03   -1.2422707039978341e+03   -9.2102923308814400e+02   -8.7915672654004766e+02   -8.9794750488734167e+02   9.9175265215778290e+02   3.5188821495069948e+02   -5.7982908891128901e+01   1.8037250154069716e+02   -5.6921419551848669e+02   6.3484824097727710e+01   -1.1752676270680995e+03   -2.1316725922702267e+03   -5.9673902986812948e+02   -4.8421846741618890e+02   -7.4648580413766047e+02   1.1271167153224968e+02   -9.9858868239188848e+02   5.5251192219600000e+02   2.3327802159793064e+03   4.2093483619095542e+02   4.1520890621539883e+02   -2.2876893640925828e+03   -1.0851046654872420e+02   8.6454294603764583e+02   6.9724140583973701e+02   1.5402807240152123e+02   9.1302052075140182e+02   -4.5387796181103540e+03   2.0945666197349501e+03   -1.4584264667576574e+03   -7.2670557677578154e+02   -1.0612810122356893e+03   -1.5233450103323860e+03   -9.6588250176228553e+02   -3.2423884916010405e+02   -4.4690920350626573e+02   -7.1497754139977690e+02   6.0926267247668989e+02   -6.1746757356084584e+02   3.8864662617311598e+02   6.3314667490023908e+02   9.5722173033726676e+02   1.2052513777106951e+03   -6.4445592540594896e+02   -2.9854541837005149e+02   -9.0679526235502721e+01   -5.4911797399737729e+01   -4.0848058040307126e+02   -1.0477504341696344e+03   1.1918480889336740e+03   -4.1698130922784003e+02   -1.3900095136383491e+03   4.3539297295688647e+02   -1.6886003497144045e+03   -1.1281536383144182e+03   -2.2956095487562725e+03   -6.3536562807947973e+01   2.2910600833874162e+02   6.8405312045626533e+02   2.1406298388006253e+03   -1.2386588407768316e+02   4.4140283959551221e+02   2.9195701523069539e+02   -2.1149782582456096e+03   8.6156550833412939e+02   -3.7316789064080388e+02   2.9388948050223928e+02   8.9448280685551674e+02   1.5404975373749176e+03   6.0132855522309342e+02   -2.1884972677298398e+02   1.2015972880913084e+03   -2.1784508150956640e+03   -1.4507121036290177e+03   -1.5212256511867072e+03   -3.3017434956257898e+02   -9.8287262257442387e+02   -7.9230394776051958e+02   -6.1192617743804260e+02   -9.0675522693451057e+01   -7.9878609958273626e+02   -7.6090585296567190e+02   6.1131974857175362e+02   5.2387217287363819e+02   -3.2925332651308855e+02   3.2819524763558484e+03   4.6460043355799621e+02   7.4395351781266834e+02   9.5223970487123424e+01   4.1254915935706185e+02   3.0738536746755585e+02   -3.8065243742897604e+02   -8.9393738465185470e+02   -5.1348055852440802e+02   1.0702728161184874e+02   2.1529109440767883e+02   1.4902335025755983e+02   -1.2473960761489232e+03   1.7365424335922735e+03   -1.0211611925026035e+02   4.4491668646849496e+02   9.7794145154530372e+02   -1.9090653146154316e+03   -3.3190224191018542e+03   -3.6729936413308627e+02   -3.7404473110682585e+02   -2.1311007961342654e+02   1.1021581234916362e+03   2.0236052726232076e+03   8.2269093373648104e+02   7.7250257619701210e+02   1.6073323013294899e+02   -1.4166217313288037e+03   3.0566941500669685e+02   -5.9267856236527359e+02   2.8769378844527449e+02   -5.7243431452865570e+02   1.6994824126636698e+02   -7.5019507097974235e+02   1.0081900680585466e+03   -8.2510712670075213e+02   -4.0051885552603471e+02   -1.1758272054666863e+03   -2.1472863940627803e+03   -1.1427648648945349e+03   5.1138134138779623e+02   7.6780537489402718e+02   1.2682278869510653e+03   8.4840259706606119e+01   -1.1100487868605287e+03   -1.0365921170118147e+03   6.7364380282808156e+02   -6.1074859138310467e+02   7.9041207890638032e+02   -1.9807596409874916e+03   -1.7310977942315728e+03   -4.1770274715494679e+02   5.6040801798033999e+02   -1.3243582466082146e+03   -2.5339115826530920e+03   6.8421688418906945e+02   -8.0593681291184822e+00   5.1199957427635439e+02   -4.8348763247781221e+02   -7.6876125661476078e+02   4.5760327059557301e+02   -1.4043901646719787e+03   5.9569806258416963e+02   -1.2120427677979201e+03   -8.4960134647501457e+02   -1.0829004467964235e+03   9.4696803269055806e+02   1.2518537298316937e+03   1.0091902085292332e+03   -3.2010002532248484e+02   -1.1585856900593792e+03   -1.8696683104878291e+03   -1.0795755407602908e+03   -1.1338292287993795e+03   -3.7912935470151865e+02   -1.0345909729409557e+03   -2.1160489062749507e+03   -5.9824343900578651e+02   -6.1547622294138387e+02   -3.0282649106384688e+03   -1.9116513601390575e+03   -1.0898058311574134e+03   -1.9425878741041270e+03   -2.3583850147313829e+03   -4.0102724838394573e+02   1.7713916439140007e+02   -2.1126101612210705e+03   1.2805731481960522e+03   2.4512532790241792e+02   2.8447500777873825e+02   -1.9311021815712177e+03   1.5980569402780877e+03   -5.1500389861961037e+02   -5.0801175003906998e+01   3.1285088552186204e+02   -1.3128071119132526e+03   3.2987259532513900e+02   7.9189316037758260e+01   -9.4149920066888012e+02   -6.0276540422257904e+02   -1.3636503587356806e+03   9.0857607446880922e+02   -3.7621134320214259e+02   -4.9952790078015983e+02   1.4787352823433080e+03   4.8058202786434640e+02   -4.9774675083747934e+02   8.4832536024791477e+02   7.9115205980455812e+02   3.3024234202772050e+02   -3.3161811070800616e+02   -3.9461682201251215e+01   -6.0700061370301341e+02   3.2635290380098593e+02   -3.9122701830018212e+02   -1.0605745088124793e+03   -3.0052254242095040e+02   -9.6481127451865450e+02   -1.6894305586546925e+03   -1.3463853512897556e+03   -3.1571829786516912e+02   -1.3394185383540462e+03   -1.8217807846561227e+03   -1.7063410610619928e+02   6.1319036378015778e+02   -2.0764756028609856e+01   -2.8006106910561520e+01   -6.0708571428571429e+02   -8.1552323129087836e+02   2.5974594003024384e+02   -1.6844051525081275e+03   -9.0717177659590266e+02   -5.9636088370268999e+02   -4.5794746985761645e+02   -1.8636589253729428e+03   -7.1762564481196489e+02   -4.6317444032588435e+02   -7.9222456209241568e+02   -1.0128520180607346e+03   -5.3658594398894945e+02   -1.5619798060423732e+03   -2.2373207323050756e+03   -1.7208697296057244e+03   -9.7877331468484942e+02   -9.9834072781118789e+02   1.6784020343669957e+02   3.7707997614373767e+02   -3.1050552200342790e+03   -1.1618763211064750e+03   -1.4257509137219870e+03   -2.3466987270701429e+03   -1.5344997288526540e+02   2.8939228152562140e+02   -7.2548897749166838e+02   -6.4052759398569526e+02   -1.3277613212705899e+02   1.0266559730711779e+03   -1.1247070669212501e+03   1.6532571991022562e+02   1.6943135692232596e+02   7.7978543412921590e+02   -2.6277619962138928e+01   -1.8359084533796531e+03   -6.8153619885460193e+02   -8.7471378110646458e+02   -1.2734621396768707e+03   -1.3356417096779082e+03   -1.2230658390838323e+03   9.3498213909850392e+02   -1.1224863418219925e+03   -5.6455316821749898e+02   7.8961189098962791e+02   1.6349985561034307e+03   1.1424416945318176e+03   1.1395711311983730e+01   5.2957364237965862e+02   -2.8561851776866087e+02   -1.3112378198027393e+03   -1.3069910599416903e+03   -1.2928601849569873e+03   -3.6591757839444640e+03   -1.2441274846960612e+03   -1.5640069437502981e+02   3.2776102862609073e+03   -5.7446631792649839e+02   -4.4072981152636527e+02   -3.6342543310646136e+02   -9.3700873826988595e+02   -1.7558144814052662e+03   -4.5676234610115716e+03   -1.2280599701953788e+03   -4.8767178736986949e+02   5.6388968347646903e+02   -1.0182481634256012e+03   -3.5713175507007413e+03   -2.4818198423632825e+03   3.9303260020248081e+02   1.8118735090814911e+02   -5.2604622716551421e+02   -4.1294506332400704e+02   -1.8879076221372579e+03   -2.0650846685491520e+03   4.1160032077618735e+02   7.1859416490696253e+02   1.4540163569419137e+03   1.7259713021805969e+03   -7.1767600603030246e+02   -1.6328141568706917e+03   -8.7732292852418118e+02   8.8371401159820937e+02   4.6492655191067871e+02   -9.3970749539862436e+02   -2.1407830360817861e+03   -1.0176184018234469e+03   1.5960093667195697e+03   2.2872248924483470e+03   1.3860858012543174e+03   7.9344629560617943e+02   -5.4914321487085056e+02   -3.0290162196580707e+02   -1.0409560088386861e+03   -1.2118799818898026e+03   -1.9521995443097346e+03   -1.6982833151493937e+03   -1.9113078884160795e+03   -1.5981335716059311e+03   2.0329362293836666e+03   1.0110027989650152e+03   -5.5952389742416335e+02   -3.1141456894452023e+02   7.8968702974544237e+02   2.1496004633867879e+03   -7.7903966074944606e+02   5.9744956553469058e+02   -1.0776332199498873e+02   1.5406679161922686e+03   -1.2147361087386687e+03   -6.6040695159275094e+02   2.2911057385866116e+01   -1.7330832612745658e+03   -1.0225843184825926e+03   -2.5181591760336823e+02   -1.8999232521288278e+01   6.3104700254907141e+02   -1.2508668952547117e+02   -4.8568145588981952e+02   9.8168453944855821e+02   -8.2282290677154279e+01   7.6443856665165094e+02   1.4356620060496105e+03   4.6894789760526862e+02   1.8772085632934658e+01   -1.8959791585912265e+03   -4.4503980759995835e+02   -1.3561563317756413e+03   -3.2856814807112787e+03   -1.6886074312571867e+02   2.6054725485353589e+02   -9.6358305874712573e+02   -8.3419916889155240e+02   3.6870586668418662e+02   1.9021285394594793e+03   -1.5576106496174989e+03   -1.2299112807423169e+03   2.1215936036374208e+02   -1.7411211998293381e+03   1.4369672070366846e+03   -1.2147256608280973e+03   1.3756291907652951e+03   2.8751234952872865e+03   9.1681151842931865e+02   -5.3333057298290873e+02   -1.3847495786483546e+03   -1.5000696856588604e+03   4.5115615367129595e+02   1.9073620032055485e+03   1.1326232755804804e+03   -1.2501623213666280e+03   -4.1680109136042250e+02   5.1578754622056454e+02   -4.7690822763030212e+02   2.4356272549223959e+03   -4.4932356112322810e+02   1.3651174898816703e+03   8.1927483697844912e+02   -1.2130306998007250e+03   1.8585038303626465e+02   -1.6977211699588128e+01   -4.6091906355831395e+02   -7.2695911918578403e+01   -1.4057537374530048e+03   -1.6688658218664059e+03   -1.7012468959824764e+02   -5.4188517471360433e+02   -5.0322402279115755e+02   3.4858493282019305e+02   9.1014851961224497e+02   2.3324338707252487e+03   4.5706507358760433e+02   1.1601012478593923e+03   -1.3407633763837639e+03   2.4815724307021321e+02   -3.2096494472092792e+02   -1.6201512617729954e+03   -2.3626067623887493e+03   -1.7322410746097287e+03   -2.3102552983919868e+03   -2.7555221717271917e+02   -1.2295704893950228e+03   2.2982950386849885e+02   5.7536536330233014e+02   -8.8608940275942402e+01   3.7243684693274054e+02   1.9683189748877930e+03   -1.7606113293221533e+03   -5.8557109010619820e+02   9.7660582994784568e+02   5.5191411957091793e+02   -6.5877695255953803e+00   5.5742937939461819e+02   -1.7952056661103336e+02   6.4525209193940918e+02   -7.4363837139729213e+01   -5.0802502474235860e+02   -6.3238794422315027e+02   -5.6036565174709563e+02   -5.4883073969130521e+02   1.3102552842929604e+03   -1.6617742521122866e+03   -1.2215375522826334e+03   5.1221332231717167e+02   -9.3213279408937319e+02   -4.3444723227369593e+02   8.2890242755292059e+02   4.3242057753480577e+02   5.9299056278361979e+00   -9.6049889479908109e+02   -1.3953778309684594e+03   5.0030881862621322e+02   -6.0865503170654574e+02   -4.5602985504192128e+02   -6.0260028623620371e+02   6.5389469903052387e+01   -1.2343997817812326e+03   1.6028274872567692e+03   1.4937617332427267e+03   -1.3482374769084201e+03   -1.5021450252979844e+03   -8.2731422081937907e+01   1.0434973405738242e+02   -6.9484201190768567e+02   6.0325933990864905e+02   -2.3282715201531460e+03   -1.0585790931651982e+03   -5.7724215387866593e+02   -7.2921889069773988e+02   2.9922325282593715e+02   3.6444516725256540e+02   -7.5847238972014975e+02   -1.5034516422564670e+03   -1.4066587265681540e+02   -2.2457282310989531e+03   9.4488176436751280e+02   9.0305628574695913e+02   -1.5935422312068733e+03   -1.2524743107905281e+03   -1.0334039344210464e+03   -7.3870330638490759e+02   8.2141634386252008e+01   -1.9737661933409589e+02   -1.9437395418029621e+03   -2.6257081934683924e+03   -2.8513274587721418e+02   -1.1001893448186672e+03   2.2334961942643514e+02   -4.5243697820595889e+02   1.0427508551051176e+02   2.5542694275093318e+03   -3.7324845401566245e+03   -1.8636949039450064e+03   -1.2001814338581178e+03   -7.3157076030698909e+02   -1.5314031220693566e+03   -5.2722447211439396e+02   -6.2903823526081396e+02   -1.2884396868750259e+03   4.7799766639943209e+02   -7.6746174040150481e+02   8.2210528601250894e+02   -2.5652427815536953e+01   -1.1443490038851310e+03   -2.1636389444737274e+03   -2.3454429279830406e+03   -1.3184774732482736e+03   -1.4909194023068903e+03   1.3429439363156348e+03   2.5634448523408417e+02   -5.1823114368409612e+01   -2.7331811438711716e+03   -1.3794177538756937e+03   -6.1904702673211864e+02   -2.8172492416450484e+02   -9.2209517771264734e+02   7.5549596419536002e+01   1.3371063926874075e+02   1.0851536938669017e+03   -1.2116106319367734e+03   -1.1166719485598901e+03   -2.0163472194176959e+03   -2.3854799500486188e+03   -7.6974260455197339e+02   -7.0140351089801857e+02   -1.2539739689015998e+03   -1.0192734702052101e+03   -1.5913938362519887e+03   5.9077943993134660e+01   -6.3337103864363951e+02   -6.6367529832201353e+02   2.3147760607559610e+02   1.0