<?xml version="1.0"?>
<VTKFile type="UnstructuredGrid"  version="0.1"  >
<UnstructuredGrid>
<Piece  NumberOfPoints="2534" NumberOfCells="4892">
<Points>
<DataArray  type="Float64"  NumberOfComponents="3"  format="ascii">0 3 0  0 -3 0  6 -3 0  6 3 0  3 -3 0  6 0 0  3 3 0  0 0 0  3 0 0  0 -1.5 0  1.5 -3 0  1.5 3 0  0 1.5 0  6 -1.5 0  4.5 -3 0  6 1.5 0  4.5 3 0  4.25 -1.25 0  1.75 1.25 0  2.25 -1.5 0  4.5 0.75 0  1.541666666666667 -0.2083333333333333 0  3.219827586206896 1.521551724137931 0  1.125 -1.875 0  4.875 1.875 0  0.8702651515151515 0.631628787878788 0  2.25 2.214285714285714 0  3.316176470588236 -1.904411764705882 0  5.214285714285714 -0.75 0  5.03125 -2.03125 0  0.96875 2.03125 0  4.041666666666667 -0.2083333333333333 0  0.8205128205128206 -0.9134615384615387 0  3.942582294752138 2.189194098250713 0  3.061487638533674 -0.968243819266837 0  2.192708333333333 0.4427083333333334 0  4.157850026972511 -2.182329047049442 0  2.331456616463011 -0.5285296485744057 0  3.654761904761905 0.5654761904761902 0  5.25 1.125 0  2.563673341677096 -2.280663329161452 0  5.126674107142857 0.1283482142857142 0  0.75 -3 0  0 -2.25 0  6 2.25 0  5.25 3 0  0.7680051888903191 -0.1384245958639337 0  1.617229471026718 -1.006949429867069 0  4.218940341429579 1.468686552856807 0  3.75 -3 0  2.25 -3 0  0.75 3 0  5.25 -3 0  6 -0.75 0  0 -0.75 0  0 0.75 0  2.25 3 0  6 -2.25 0  0 2.25 0  3.75 3 0  6 0.75 0  1.787573018358365 -2.279142327213878 0  3.195025188237337 2.273430909158844 0  2.528159645294386 1.151699106559287 0  1.041598427383826 1.322848427383826 0  1.520951704545454 0.4634232954545453 0  1.580357142857143 2.325892857142857 0  4.919642857142857 -1.361607142857143 0  4.54981623521892 -0.6483700862895494 0  2.99317863826574 0.6697091957925523 0  3.450169349029507 -0.4574865881858001 0  3.605016126014028 -1.323102984840902 0  2.745144658907412 1.882241931337371 0  0.4898065586600511 1.092777516238393 0  0.5 -1.875 0  1.217028489597945 -2.469323836800685 0  1.659912685567181 -1.604738056701542 0  5.4375 1.6875 0  5.34375 2.34375 0  4.52741779500503 2.384139265001677 0  3.375 -2.514804579549941 0  0.5446428571428571 -2.455357142857143 0  2.766554087216865 -1.745795909102064 0  4.525516559010988 0.1490283123570637 0  3.87554132162248 -0.8280516069565407 0  4.53622906132958 -1.76963146596888 0  0.4243951612903226 1.875 0  0.554851858345021 2.446861709948876 0  5.575604838709677 -1.875 0  5.445148141654979 -2.446861709948876 0  4.875 -2.575604838709677 0  1.440573466105381 1.721823466105381 0  2.193519495405082 1.631799415080963 0  5.472630128027442 -1.330813078900983 0  4.750126894286386 1.343813447143193 0  5.607142857142857 -0.375 0  2.625 2.607142857142857 0  0.3921763197810531 0.375 0  5.60901753622775 0.3750000000000001 0  1.125 2.613454943235572 0  3.701856738980915 1.163867513386733 0  3.736112850688509 1.696746876851408 0  3.519183195491339 0.06065128742606851 0  3.973620778217027 -1.693401606145563 0  0.8125 -1.444978632478633 0  1.256657745408029 -0.6381828923025001 0  0 -1.125 0  5.019997778514942 0.6475044429701156 0  4.125 3 0  1.285569332703024 0.8955310332120207 0  0 -0.375 0  0.4638922275641027 -0.5625 0  2.056635259780241 -0.07226025978024064 0  2.130475508371123 -1.000827820434028 0  2.677484372338113 -1.267299126394495 0  2.848680878891876 -0.4956836878192376 0  4.937901885089369 -0.3340245904575954 0  4.393563081308854 1.919544166973803 0  4.053859126323572 0.2813938488760716 0  1.181051704329518 0.1167440895674965 0  1.971354166666667 2.607142857142857 0  4.875 3 0  2.519350561152006 0.08093582719875507 0  3.139443301924015 -1.442524927271905 0  6 2.625 0  1.849169256239503 1.945480934753207 0  1.867196483071171 0.7892354369530077 0  1.192506522009051 -1.184888428863342 0  3.375 3 0  3.603234392481833 2.536866305538572 0  3.846752908916648 -2.537707634073423 0  2.014339897513945 -1.886932065281681 0  4.038392037966526 0.8363324773944992 0  4.421242701722609 -2.552534687860327 0  3.715389848650903 -2.108856956172843 0  2.985668138820625 1.127780908772207 0  0.4500794934449803 -1.173696061598557 0  3.366760888116476 0.8891914618875614 0  1.869163043700093 -0.6107175804171328 0  2.175114838273305 -2.53928723780967 0  3.014417665538299 -2.241523065744933 0  2.625 -3 0  2.819968145332426 -2.617202329573456 0  5.625 1.3125 0  5.563263538826679 0.814027077653358 0  5.625 3 0  2.550041671270923 0.7074928970804664 0  4.014583091741168 2.59891853892166 0  0.6440729668673318 1.499523832583132 0  5.219449799568244 -1.660557808485412 0  3.474012636702472 -0.9300738420779746 0  0.8125 -2.142857142857143 0  1.875 -3 0  4.945010515846405 2.554471797033147 0  2.611388969012422 -0.8478354915063726 0  3.223746055611014 0.3371683159691745 0  4.843939757110898 -0.9483610977948225 0  4.66556954816842 -2.220888354477256 0  4.125 -3 0  4.448108395110625 -0.2524000502731018 0  5.63671875 2.05078125 0  2.822484133964224 1.491327727709286 0  3.378213092764193 1.903125093887009 0  5.607142857142858 -0.9231200445788541 0  2.12639693023183 1.100450516019641 0  5.625 -3 0  0.375 3 0  0 2.625 0  6 -2.625 0  0.3931307155906299 -0.01856779822591927 0  0.8549199714190221 -0.5218333744252657 0  0.7651723094668359 0.253768144801553 0  1.421989550604507 -2.133299471886336 0  1.582611957351803 -2.615166692128227 0  4.420331038793115 1.133144382396504 0  0.375 -3 0  0 -2.625 0  5.078156723571596 1.54697017071479 0  1.877250715260938 -1.288801575378032 0  2.409169073010687 -1.916147168931784 0  1.146151077069952 -0.268000681695328 0  1.726784828652036 0.1335728643263411 0  2.745628549924675 0.3838821021397905 0  3.011490900297165 2.613625569196862 0  5.62463365164608 -4.137655439684362e-05 0  1.875 3 0  1.125 3 0  6 0.375 0  2.625 3 0  6 -1.125 0  6 -0.375 0  4.875 -3 0  6 -1.875 0  3.375 -3 0  1.125 -3 0  0 -1.875 0  0 0.375 0  0 1.125 0  0 1.875 0  6 1.125 0  6 1.875 0  4.813017731148975 0.9677363687196439 0  2.807371623148303 2.264962208227767 0  0.3692953377255688 0.7436406761680247 0  5.615625 2.615625 0  0.9395725521479794 0.9812935874921043 0  1.390920759130215 1.238984550166515 0  0.9588795022085095 1.672288500195331 0  0.87712392565124 -2.641031728267331 0  0.3665732993114588 -1.532068934251388 0  1.841944504733106 1.591700334213738 0  4.832970185136452 0.3385359233091246 0  4.169083540479082 -0.5746148619765254 0  5.281697083409333 -0.2046640461936881 0  4.072845380968044 1.784516523483641 0  1.293029195762321 -1.543079049035419 0  4.878733886054284 -1.720697370582964 0  3.609167475697567 -1.687579152754035 0  4.836981942878573 2.222259978217028 0  4.204938267037067 -0.9128589669335569 0  5.183079748175263 -1.111742407358677 0  1.469404041858679 2.654509729682302 0  1.22880920402559 2.273525645756405 0  4.566761045622856 -1.414165869120005 0  4.531680518427715 1.606803989975667 0  1.918929241273175 2.27471131819245 0  3.590183783343969 2.184680610175416 0  1.85683899811842 0.4533569963423589 0  1.173935704088662 0.4636872214645547 0  2.116602160898525 -2.207718541460878 0  4.51821874648995 -1.042568353750147 0  2.721551512787618 -0.1859357475290837 0  5.294921875 2.001953125 0  5.288671874999999 2.670703125 0  2.199940744527116 0.7756512213396931 0  4.090519467638897 1.163401080812838 0  2.298177083333333 2.670581371753247 0  2.484362362207526 -2.687319997637033 0  3.300530569898859 1.207053005217563 0  3.936078051808127 -1.362164062673065 0  5.341218841330105 0.5689885832563615 0  4.226314635599414 0.5638853401248238 0  2.524510956818563 1.635483567726497 0  0.3219546452225031 1.389066019009203 0  3.139061555368706 -0.3133905221155423 0  3.145569907612562 -0.6461828528638952 0  3.701427442033566 -0.2272880199383185 0  1.686782510365738 -1.934662341426927 0  2.427696494631844 1.944064773844184 0  3.901817839425732 1.422433381251312 0  2.356489883772755 -0.2025512972825912 0  4.820757576351118 -0.01647699434507374 0  3.064415631228375 1.809719380809516 0  4.643002705009462 2.69782572459795 0  4.31624250429496 2.728112685900672 0  1.520100694408069 -1.314302747998057 0  3.754559308601717 -0.5375020107416889 0  0.25 -2.0625 0  0.8125 -1.826636904761905 0  4.861738621091127 -0.6367294570749906 0  1.545149590740081 2.015832101819233 0  3.857113324620078 0.04127675193819436 0  0.3162874907704933 -0.864918315983958 0  4.21293081604216 2.352874368135467 0  3.123697687162562 -2.708090473740421 0  3.415275466010259 -2.202892416689829 0  3.601103065320932 -2.727566580522146 0  1.558629964945672 -0.5289921609136927 0  3.324859026263307 -1.198136798699183 0  2.424350759683917 -1.092246517929194 0  2.789248065239812 0.8954629970670158 0  0.8882026075771248 2.364936378889839 0  0.8066140242673685 2.679750706449505 0  4.504454978490482 0.4491616076730165 0  4.26881784709759 -0.009649566552704852 0  1.313479173834523 -2.758675889510418 0  1.120577805361368 -2.179971784090952 0  3.734048623985226 0.8602850349907256 0  3.527828882622877 1.432983527791925 0  1.959527908877504 -1.578124930685265 0  0.7602573574724077 1.220872343399509 0  0.6691217533356228 0.8531987603309893 0  1.877213035764122 -2.564340152892596 0  3.304349402914068 2.552016594979913 0  4.285565286275464 -1.569057178671076 0  4.227521511146333 -1.876903861267543 0  5.34375 1.40625 0  5.71875 1.59375 0  1.56245959534423 0.766197796710638 0  0.2458241530773257 2.4375 0  0.2794123857609179 2.138568368155198 0  5.754175846922674 -2.4375 0  5.720587614239082 -2.138568368155198 0  0.6472458227887359 2.124973059628837 0  5.124241021325378 -2.352544055105642 0  5.189172233440652 -2.675873509996353 0  5.364643151640443 -2.12768524739804 0  2.298896485720138 1.348573610321417 0  0.6008689899200503 -2.745193425346304 0  0.307092513690391 -2.651812055231556 0  0.2683745826107009 -2.363146293324415 0  0.5223214285714285 -2.165178571428571 0  0.5169611136983336 2.740349995819724 0  5.607469108596883 -2.699891746740618 0  2.138439274270545 1.947386893596098 0  1.25507379660067 1.953406658386351 0  4.135759889512124 -2.476847355718572 0  2.548249345531056 -1.538893887888457 0  2.771010284190282 -2.05339728351
[...]
<CellData  Scalars="f_26-2"> 
<DataArray  type="Float64"  Name="f_26-2"  format="ascii">2.3841913536673732e+09   -5.0738430229038153e+09   5.3554896931992998e+09   -1.0324354116102414e+09   -2.7288198653047366e+09   2.1639571383374259e+08   1.3783961989114890e+09   1.9746559333289549e+08   -1.0072218977075651e+10   -6.4665147016000092e+08   -1.7993934243079414e+09   4.6376392805277691e+09   -8.6030844001300926e+09   4.3709396373864603e+09   9.8877047940996513e+09   -2.4867512106973906e+09   -4.3118433811418686e+09   3.9557407172288499e+09   -1.9042542495569253e+09   5.3560196517345524e+09   2.5951006061101456e+09   -2.1027586747434156e+09   -7.4907944436881065e+09   -8.0092767514838371e+09   -2.5795127531290793e+08   -4.5442529019386339e+09   -5.8965972207783890e+08   4.2031508084648914e+09   1.9834410335067388e+08   -4.6371015772507191e+09   -4.4949358701039314e+09   -1.1403217876383270e+10   -4.4584071245347891e+09   -7.5466971862920389e+09   -3.2329563906758409e+09   2.6952880684064660e+09   1.5387794205180149e+09   -1.1707758801149848e+09   -4.1625039271738062e+09   3.1751882305339670e+09   2.1760488121090674e+09   2.3504212095743923e+09   9.6757028164128075e+09   8.5419402184248323e+09   2.2181419337263942e+09   4.8501914580696144e+09   3.4935875819014845e+09   -7.6275898479919205e+09   8.4401100691852102e+09   5.7141791720601912e+09   5.3265971307550783e+09   -8.0235111344100070e+08   -3.1649437797505531e+09   3.2226724005750270e+09   7.0271182437717628e+08   5.5123515910646381e+09   2.9997022121224661e+09   5.7024388025677204e+09   -1.0073012126754971e+10   -1.0309798410805200e+09   4.6947721514329424e+09   -1.1366716936871567e+10   -1.5211663382086909e+09   4.5256330349008566e+08   -3.9270105969888921e+09   -1.2677203700550749e+09   -1.3912497643112213e+10   -5.7655758585064325e+09   6.2476832400993528e+09   -4.4766748437154522e+09   5.0263543456417084e+09   -1.0989541671607273e+09   -5.2065803015909901e+09   -3.9840839319107141e+09   2.3003859116808548e+09   -2.8495590081110196e+09   2.1683341334831777e+09   3.8263087543571863e+09   -1.8143034612332554e+09   -7.0975562288461590e+09   -1.2774499752476325e+09   2.6502226878622520e+08   1.9378516756431696e+09   4.0079334927313437e+09   -5.3128816287217293e+09   1.0325468568947393e+10   -9.1978030774972999e+08   -3.0388538735142703e+09   3.2265259511261411e+09   4.4545369494105768e+09   -7.4646266329209385e+09   -2.1520535284319563e+09   -2.0048015710103164e+09   -1.0193353305009785e+08   -2.8158572774586577e+09   -3.4351731989664989e+09   -4.6384479274126148e+09   5.5548433955569687e+09   2.6217232950762563e+09   -8.5116257310615909e+08   8.6303099248777428e+09   6.4468502581622086e+09   1.6266446365259638e+08   -2.0771994303388008e+08   -1.6001722490644231e+09   -9.1771598754911194e+09   -1.0562094244477904e+09   -2.5868442541367006e+09   1.7445706831954067e+09   1.0645461929200249e+09   4.5597802205874288e+08   4.5213676865555763e+09   -2.0789163656463664e+09   9.3812937187729049e+08   -1.6343456005191387e+10   -4.9297465438840284e+09   1.2990285963963432e+09   9.2493678544345999e+08   -1.0124747284820803e+09   -7.3210168844013233e+09   3.1025325715919681e+09   -2.8398747838937497e+09   3.4440286087356048e+09   -1.3097825007508495e+09   -2.7406053062112980e+09   -4.9516371457240257e+09   5.0986686434252815e+09   -6.9647533418176961e+08   -1.2757374426687935e+10   -3.3751934640344768e+09   -4.1137395907406731e+09   -1.6341800852938671e+09   -6.4897695738531122e+09   -3.4728836946966147e+09   -3.5686208640769224e+09   -2.5894033811876214e+08   -2.5759725606956208e+08   1.6937977823105528e+09   -1.8239515691248271e+09   1.2874934310437548e+08   -2.3243416956638274e+09   2.9072569253219819e+09   8.6049874405224724e+09   1.3180038300925350e+09   -7.1193072378679657e+09   -5.3936147075171518e+08   4.4015002013420753e+09   -5.3229304056573792e+09   -3.9595343113901567e+09   1.7556894823713293e+09   -3.9620143175375967e+09   7.5493402464863157e+08   -1.9176114963274199e+08   1.6233091947626064e+09   3.3761088520430956e+09   -6.2973731237228848e+07   4.0363615295089540e+09   -1.0654423811581625e+09   3.8943207041651406e+09   3.5440264616225791e+09   -1.4138966168271546e+09   9.3822795473886223e+09   8.3567584464554701e+09   -2.8766614614142494e+09   3.8841440414078884e+09   1.4945426570771668e+09   -4.9089033071570039e+08   -4.4131304212051458e+09   -4.7375131793337784e+09   7.9633165135466492e+08   1.3006724027922275e+09   -1.9347606146885068e+09   -4.9671977756862669e+09   7.1753862210700542e+07   -2.6164683878458691e+09   -3.7814369688681468e+07   -1.2457665851920565e+10   -5.2703157270054836e+09   -6.9197293306428013e+09   1.2622929571214981e+09   1.5832566161751885e+09   -6.2166629221035051e+09   4.6387053119717894e+09   -2.8104200598331633e+09   -1.4438266072006512e+09   -5.1804186099483144e+08   -4.6544462793167591e+09   2.3773463168529925e+08   -7.5978553903276033e+09   2.0983798655421546e+09   -4.7505361086460602e+08   -7.2896217608856974e+09   -7.9865856754588232e+09   6.9491831694269953e+09   2.7872284260627718e+09   6.8643761143198853e+09   -3.8435820296088600e+08   3.1951714670315838e+09   -5.4354607385795422e+09   -1.3213384539312561e+09   -5.7050374203699055e+09   -9.3639080289299524e+08   1.6687278570579455e+09   3.2458642194377127e+09   2.1796166673191900e+09   1.1345262363010454e+09   -1.1838901629122013e+10   -4.9350610029376340e+08   -1.1145545827209137e+10   -5.4156110506139135e+09   4.7073031755674992e+09   6.6449199317287350e+09   2.8154517229026240e+08   -3.8816937099044309e+09   5.4767868286111765e+09   -2.4475906551803231e+08   2.8462196203747911e+09   2.0010118985794873e+09   9.8550321287716427e+09   -5.5285173625986271e+09   -1.6376625309195054e+09   -9.9377011960083294e+09   -6.2869357337131052e+09   1.6242481217508457e+09   -4.0922209184605604e+08   1.7939215792254753e+09   2.7756562758234215e+09   3.2170803266458302e+09   -9.3970492701406491e+08   5.5450297827616291e+09   7.6404421271390429e+09   -6.0395891441608696e+09   -1.0198468074714458e+10   -9.3588106551095307e+08   -2.5863790896791606e+09   -3.9618143429352794e+09   4.6674578600247488e+09   1.9422099513891668e+09   -5.1993651813698893e+09   -2.5319205470159059e+09   -3.8635089310039005e+09   -1.4673154164058981e+09   2.7598420741238017e+09   1.1583157859085979e+09   -5.0009790413770504e+09   2.2958584649570036e+09   -6.9070039404304276e+09   1.0231538765711333e+09   -1.5296957425927162e+09   1.2418181321318595e+09   -3.2733421639968138e+09   -7.3237656005932007e+09   -4.3808642081096262e+07   5.2964848445804996e+09   -6.9230070221377964e+09   -6.1707073975154943e+09   5.4363798507178307e+08   -1.3944399749402792e+10   -3.7324144851656718e+09   -2.6300272953905840e+09   3.2414776408692083e+09   2.5688119472162652e+09   3.9084286547712355e+09   2.9538369677162266e+09   8.6928757544302692e+09   6.6852279537944975e+09   7.3268808287232552e+09   -5.2897493830519781e+09   -1.1977981401183783e+10   2.9829155729170861e+09   9.0061664623042202e+09   -5.3412610501001396e+09   -5.9701512494444637e+09   -1.5082913371439538e+09   -1.7332434919471753e+09   -4.0545049942092056e+09   -4.0441040189476109e+09   5.9476585517616453e+09   2.7347297879359550e+09   3.2831722803649163e+08   1.7129141993256278e+09   -5.7383990369945884e+08   1.1760463781314144e+09   -6.6422045135604820e+09   -8.7570086823938656e+09   -1.9993965159851310e+09   -1.7071833097962358e+09   -5.1598688737039032e+09   1.0077706969091561e+09   -4.1573594345042791e+09   3.2810754855441108e+09   1.5628574103057760e+10   2.3456309435325918e+09   2.1876849684180212e+09   -9.6856793940392551e+09   -4.5512588388718009e+08   4.7907731827236853e+09   3.0925772957892160e+09   7.0856061439753747e+08   4.3278433402362909e+09   -1.9406220340223152e+10   9.9940994346562805e+09   -5.7117857379832764e+09   -2.6567237153148160e+09   -4.9484784794876499e+09   -5.6505358862018280e+09   -3.8288826238054390e+09   -4.6451340294597566e+08   -1.3996065513943477e+09   -2.5401206322731161e+09   3.1175394341438036e+09   -3.0821316261697788e+09   1.2225765740583038e+09   3.8800523951704698e+09   4.7309082961878729e+09   4.7399726217704573e+09   -2.3623242255327969e+09   -1.2913211875277801e+09   1.1870210673239503e+09   1.0599710374845090e+09   -1.5783868714953547e+09   -4.2471184212464743e+09   6.2149396625166426e+09   -7.0050286975687432e+08   -6.3917912938323622e+09   9.6679614072968507e+08   -6.9142598301453352e+09   -3.5554725476920781e+09   -9.9883116904552021e+09   6.8134997851451039e+08   2.0974368857136762e+09   1.5460236633452210e+09   9.5363680219350739e+09   -8.6758311784378636e+08   8.9332210493112063e+08   1.7511157618385382e+09   -8.0114970346518116e+09   4.3009296050697374e+09   -6.2697855682592046e+08   5.7699064084736621e+08   3.3560955360815601e+09   5.3645028317359953e+09   3.8256304438536429e+09   -3.1927731631402916e+08   5.1825019810332775e+09   -9.1168701778077660e+09   -6.4583512023776493e+09   -6.7190390656659298e+09   -2.0380834795336306e+09   -6.0073504910271990e+08   5.9838315938660240e+08   -7.5913651673795676e+08   1.4636919997100558e+09   -2.5420956726137452e+09   -4.2590006523370638e+09   3.5647931620659113e+09   3.9822821568103685e+09   6.1403815901840556e+08   1.1762291351363808e+10   3.3102499748180766e+09   6.1482791062455435e+09   -9.6383717231840444e+08   2.7854520705611095e+09   2.4068959648948774e+09   -1.1158856047997527e+09   -3.4140315247141266e+09   -1.6222626819660678e+09   -8.1926240682503557e+08   6.9555120285128081e+08   1.0188040498163301e+09   -4.8878273119153442e+09   1.0530798786081787e+10   7.2135755357615829e+08   2.4796333734108324e+09   4.0897902222688751e+09   -6.3208164499040537e+09   -1.1260879322316126e+10   -6.6302805739429426e+08   -1.0982001183021989e+09   1.0215410964147581e+09   3.9508022633177223e+09   5.5822678758052111e+09   4.0847034065611115e+09   4.5750918554561348e+09   2.1885665061530013e+09   -5.8639027768080683e+09   1.7724799118042781e+09   -1.3404222898662784e+09   3.7557965860541520e+09   -1.2924847157394648e+09   -4.5258069088030988e+08   -3.3405338829492865e+09   4.5624968695775690e+09   -2.5399026992539926e+09   -1.0788334738218243e+09   -4.0654953101006103e+09   -6.7944272863169098e+09   -4.3113222477227478e+09   2.1920292190204673e+09   3.7632194573092551e+09   6.0878488749483347e+09   2.2028552040142569e+08   -1.4904326801458292e+09   -3.7712434466296787e+09   4.0812299620112715e+09   -1.0406765118069618e+09   3.0124679465610228e+09   -9.5049308625214596e+09   -6.7678848952661285e+09   6.5973857178413069e+08   2.7201004580267310e+09   -4.7765306032802057e+09   -1.0134223252726404e+10   3.9698948044813862e+09   7.4367567959155166e+08   2.7186206555732727e+09   -2.8414803708947244e+09   -4.1815345815172467e+09   3.2742381635835891e+09   -4.0445873433244543e+09   3.1799584303314967e+09   -4.9053012386495409e+09   -2.3201515330792456e+09   -5.4663620429327803e+09   3.7876097132290497e+09   6.0551909695327654e+09   5.8330745086418867e+09   -7.1002716263039398e+08   -4.8776381275534239e+09   -6.7963629702386980e+09   -3.2666776350015583e+09   -4.8662203875694590e+09   -2.2792634021501975e+09   -3.9519436047263794e+09   -9.7910909181181011e+09   8.6035111533909678e+08   -2.4042574559457812e+09   -1.4622415102090946e+10   -9.0294008991753349e+09   -3.5520862409518118e+09   -1.0139038008135939e+10   -9.4486546622069950e+09   -1.5116042254148836e+09   3.3964594549188888e+08   -8.1366026079894037e+09   6.9284423869432650e+09   4.7122631568944389e+08   1.8854410948766117e+09   -7.9088006348316393e+09   9.4427684334289570e+09   -1.6999469070736384e+09   -2.1307557152358714e+08   4.0871545394114548e+08   -6.9455502848450060e+09   9.9445239873250222e+08   6.4919067252821124e+08   -2.2025824950332651e+09   -2.5281813459923801e+09   -5.5376698878570356e+09   6.3257448548157253e+09   -2.9454968510578227e+08   -1.0116053148279500e+09   7.1621239560914927e+09   3.7958121124796524e+09   -3.6602553296535945e+08   3.0451321661397624e+09   3.8516356462146845e+09   8.3538334582571518e+08   -2.3887256076878915e+09   -8.5515717276775670e+08   -2.7182306056084590e+09   2.9862481910235167e+08   1.7613991218076413e+09   -3.5381711994814911e+09   -1.0874754446611750e+09   -4.0467117879586906e+09   -7.1109800072064390e+09   -5.5126935248261223e+09   -1.1059407416515312e+09   -5.4367050320250282e+09   -5.8543486055963774e+09   2.4041234245153031e+08   3.4196801157866983e+09   8.2766659824853051e+08   1.3156206138812332e+09   -9.8170681051428568e+08   -1.7676679935195417e+09   1.6234992368470297e+09   -7.0237524691614561e+09   -4.0294701429838061e+09   -3.4214764789884791e+09   -2.3023027861867294e+09   -7.4608229185699692e+09   -3.1042111675162039e+09   -2.2088010513280697e+09   -3.5951938176892271e+09   -3.3861488824037514e+09   -1.4918799378821971e+09   -7.2605128185828123e+09   -9.8870504622699203e+09   -8.0942171595146685e+09   -1.5323553071991210e+09   -2.9790560430201836e+09   4.9959362599928975e+08   2.4792461359744821e+09   -1.2381710608609188e+10   -5.5905392328890715e+09   -6.6761212298955688e+09   -8.4675413800119247e+09   1.2412591104970806e+09   2.7003622740052128e+09   -8.7581991145453560e+08   -2.5546377980234599e+09   2.7845173104252603e+07   5.6368714413875399e+09   -5.3839473011922503e+09   2.0189063946605411e+09   1.0324488602072630e+09   5.2243683041994524e+09   7.5926802712178981e+08   -1.0140908846361893e+10   -3.2071761031714635e+09   -4.2660645476162429e+09   -5.0588154193277206e+09   -4.9371269192910070e+09   -3.9956584968621330e+09   5.9608309754431047e+09   -7.3341466109009981e+09   -1.8214673935902527e+08   4.6379338563496027e+09   7.7389893833909044e+09   5.9041177869780197e+09   5.4753751984361231e+08   1.8509940387729764e+09   -4.1499397596359718e+08   -5.7912819860826750e+09   -6.1395955596948071e+09   -6.3305691752517614e+09   -1.5405355796841372e+10   -5.5962679284463120e+09   -6.1075122643238127e+08   1.5249816204671488e+10   -2.5814755453620319e+09   -1.9907513353584552e+09   -9.5494703412604582e+08   -4.6697063154761677e+09   -9.1099375843211727e+09   -1.8135052430159492e+10   -5.6746727955927677e+09   -8.5226822018858051e+08   2.7657322053163114e+09   -3.7721511728453670e+09   -1.6276444878671850e+10   -1.1110146779072203e+10   3.5367779717243743e+09   2.2798644919903603e+09   -2.1508909320233321e+09   -7.7528385858444178e+08   -8.0148018763121042e+09   -7.5452695789454784e+09   3.1721037249582429e+09   4.8312685212765684e+09   7.0917050856590738e+09   9.4438574412942924e+09   -1.7810062111548452e+09   -8.5648673879468985e+09   -4.3671865866733427e+09   4.5410849340180664e+09   2.3453223429497285e+09   -3.2053009638964391e+09   -8.6584128923924809e+09   -4.1101194171957021e+09   1.0254042455377918e+10   1.2141541214671083e+10   6.6973094032277994e+09   5.1910408742643423e+09   -3.0868615025952249e+09   -2.4540860772703928e+08   -4.1325037795470591e+09   -4.7199221230203037e+09   -9.1149091359726028e+09   -8.4164197773425293e+09   -7.7683043559013739e+09   -8.7988032230427589e+09   1.0072637212733074e+10   4.9613301079408865e+09   -3.5638315828959231e+09   -2.3373521396946011e+09   4.5190941338890276e+09   1.0382876853509388e+10   -2.8176519613301835e+09   3.7824680792760983e+09   -5.9472649012745941e+08   8.4503464046513271e+09   -4.6849240954986391e+09   2.0803697135326767e+09   6.2462360764549065e+08   -7.8002799129694262e+09   -4.7179324470836935e+09   2.2235631799315322e+07   9.6186506838195515e+08   3.4408438570734544e+09   1.7015727639679193e+08   -1.7914883934212568e+09   7.2686186384150352e+09   1.8156152109077592e+09   7.0348929269530334e+09   5.9266682145001841e+09   2.4586375533967109e+09   1.0883284340816126e+09   -8.0726202754341784e+09   -1.3754132332873843e+09   -6.4656463630555401e+09   -1.4423556182445240e+10   5.9021107527931198e+07   1.3917312713670053e+09   -3.5687231191552649e+09   -3.1207542994337955e+09   7.0136823663702822e+09   9.6769471798007374e+09   -3.9175864239088511e+09   -3.6979783272439923e+09   2.3199943688646140e+09   -6.5558915597428484e+09   5.6351688293806028e+09   -2.6219540619389386e+09   6.7991022304099293e+09   1.4197464059257570e+10   5.2320124764009829e+09   -4.2931374299096578e+08   -6.7898189521712506e+08   -5.8797222890943470e+09   1.3773340215812860e+09   7.2000504715437403e+09   5.3211650850262146e+09   -3.5984763173782659e+09   -1.0575473302490357e+09   3.5892271155274138e+09   -1.0504358668020812e+09   1.5066333228758909e+10   -1.5824882218967481e+09   6.0400708795588017e+09   4.5430980421566896e+09   -2.6993709100353422e+09   2.4255788986138520e+09   1.2488715248013752e+09   -1.0814779901495245e+09   9.0367144820182312e+08   -2.4322014866812592e+09   -6.8136912408320379e+09   -3.8372151364444131e+08   -2.0362341642717440e+09   -1.7940733519356868e+09   2.5964013065748301e+09   5.0856131257089748e+09   1.0860989115226212e+10   2.1879601736187201e+09   6.9056359122184858e+09   4.9452353180811810e+08   2.0186122031289554e+09   -6.9979723836089075e+08   -5.4749020801095276e+09   -8.5541283547465639e+09   -6.3804701049828072e+09   -8.6640853353600712e+09   -1.2997116554344101e+09   -5.9873096277950592e+09   2.0586580632474778e+09   4.5871831925198002e+09   6.7448106663415444e+08   4.0264137324284101e+09   8.4989410902265911e+09   -6.3220155236080990e+09   -1.6975730702836618e+09   4.7785640885767698e+09   3.0783186161872063e+09   -5.8025326951793897e+08   1.5211268299815383e+09   9.2264582061755431e+08   4.0075293101480198e+09   -1.5595226978525739e+09   -2.5176734042782688e+09   -1.1389573132858467e+09   -1.8168302498022499e+09   -1.8493012256566257e+09   5.9559741300823965e+09   -7.0178900792795553e+09   -6.1682321372175579e+09   2.7768156017901936e+09   -3.7329146926100006e+09   -2.2262225617820759e+09   2.8301701993584852e+09   2.5112815726659865e+09   -4.2282105720574987e+08   -3.4229220930688171e+09   -5.8368351127633715e+09   3.1847023413729043e+09   -3.1503996161210246e+09   -2.5851832500438783e+08   -2.7142490464514313e+09   2.1531428339195981e+09   -4.0877816835148492e+09   9.0474335207475357e+09   8.2587924350372791e+09   -5.4815100357916584e+09   -5.7507489449227619e+09   6.6249175429804933e+08   1.2434254898796754e+09   -1.4471764794528358e+09   2.8244685347901840e+09   -9.4897473910037785e+09   -3.3815176616164594e+09   -2.8573685479516168e+09   -4.3286810853257716e+08   2.2451151009061685e+09   2.0381250970508056e+09   -2.6028521820759134e+09   -5.3595451523925800e+09   -1.8212902476828685e+09   -8.7127242961576214e+09   5.0654465113645515e+09   3.6347163156235323e+09   -7.7518305400359831e+09   -6.4259670894165783e+09   -4.6454923315300331e+09   -4.1104402309869347e+09   5.9401204426343851e+06   -1.7774824637830670e+09   -8.3879833450343561e+09   -1.0370073802916433e+10   -1.9980838788931494e+09   -4.3426491818102179e+09   2.4309268537031493e+09   -1.0460517055610961e+09   2.1139134732425606e+09   1.0088815726126307e+10   -1.5926690136338665e+10   -7.6809568514327450e+09   -5.1390730637178173e+09   -2.6133663703981686e+09   -6.1662434308876715e+09   -2.4487534850788713e+09   -2.8278743190255823e+09   -6.4969680416041412e+09   -6.8425512770300461e+06   -4.7981990904933186e+09   4.3044138594300289e+09   2.4208668134194028e+08   -3.5017876888376846e+09   -6.2550799205722656e+09   -7.7896486809733648e+09   -6.5844714942656374e+09   -5.3269149011348162e+09   6.4940283588242626e+09   3.6718640125083418e+09   2.0592179610430539e+09   -1.0434151006488609e+10   -6.0525135451117525e+09   4.9179534961007490e+09   1.2263506781296911e+09   -3.0711017608756790e+09   -1.0562599148694851e+08   2.0707313321628420e+09   5.8187884205027180e+09   -5.2639002150188150e+09   -5.0377491063069105e+09   -8.0875323818595600e+09   -1.0156665532120590e+10   -3.6097636495518684e+09   -3.2360895065109634e+09   -4.9459052610104151e+09   -3.8303302482209077e+09   -5.5239637514210157e+09   1.0773515513138290e+07   -2.8437965438357825e+09   -3.8898249201092958e+09   2.9126623472198911e+09   6.2628373169339857e+09   1.6412008741560435e+0