<?xml version="1.0"?>
<VTKFile type="UnstructuredGrid"  version="0.1"  >
<UnstructuredGrid>
<Piece  NumberOfPoints="2534" NumberOfCells="4892">
<Points>
<DataArray  type="Float64"  NumberOfComponents="3"  format="ascii">0 3 0  0 -3 0  6 -3 0  6 3 0  3 -3 0  6 0 0  3 3 0  0 0 0  3 0 0  0 -1.5 0  1.5 -3 0  1.5 3 0  0 1.5 0  6 -1.5 0  4.5 -3 0  6 1.5 0  4.5 3 0  4.25 -1.25 0  1.75 1.25 0  2.25 -1.5 0  4.5 0.75 0  1.541666666666667 -0.2083333333333333 0  3.219827586206896 1.521551724137931 0  1.125 -1.875 0  4.875 1.875 0  0.8702651515151515 0.631628787878788 0  2.25 2.214285714285714 0  3.316176470588236 -1.904411764705882 0  5.214285714285714 -0.75 0  5.03125 -2.03125 0  0.96875 2.03125 0  4.041666666666667 -0.2083333333333333 0  0.8205128205128206 -0.9134615384615387 0  3.942582294752138 2.189194098250713 0  3.061487638533674 -0.968243819266837 0  2.192708333333333 0.4427083333333334 0  4.157850026972511 -2.182329047049442 0  2.331456616463011 -0.5285296485744057 0  3.654761904761905 0.5654761904761902 0  5.25 1.125 0  2.563673341677096 -2.280663329161452 0  5.126674107142857 0.1283482142857142 0  0.75 -3 0  0 -2.25 0  6 2.25 0  5.25 3 0  0.7680051888903191 -0.1384245958639337 0  1.617229471026718 -1.006949429867069 0  4.218940341429579 1.468686552856807 0  3.75 -3 0  2.25 -3 0  0.75 3 0  5.25 -3 0  6 -0.75 0  0 -0.75 0  0 0.75 0  2.25 3 0  6 -2.25 0  0 2.25 0  3.75 3 0  6 0.75 0  1.787573018358365 -2.279142327213878 0  3.195025188237337 2.273430909158844 0  2.528159645294386 1.151699106559287 0  1.041598427383826 1.322848427383826 0  1.520951704545454 0.4634232954545453 0  1.580357142857143 2.325892857142857 0  4.919642857142857 -1.361607142857143 0  4.54981623521892 -0.6483700862895494 0  2.99317863826574 0.6697091957925523 0  3.450169349029507 -0.4574865881858001 0  3.605016126014028 -1.323102984840902 0  2.745144658907412 1.882241931337371 0  0.4898065586600511 1.092777516238393 0  0.5 -1.875 0  1.217028489597945 -2.469323836800685 0  1.659912685567181 -1.604738056701542 0  5.4375 1.6875 0  5.34375 2.34375 0  4.52741779500503 2.384139265001677 0  3.375 -2.514804579549941 0  0.5446428571428571 -2.455357142857143 0  2.766554087216865 -1.745795909102064 0  4.525516559010988 0.1490283123570637 0  3.87554132162248 -0.8280516069565407 0  4.53622906132958 -1.76963146596888 0  0.4243951612903226 1.875 0  0.554851858345021 2.446861709948876 0  5.575604838709677 -1.875 0  5.445148141654979 -2.446861709948876 0  4.875 -2.575604838709677 0  1.440573466105381 1.721823466105381 0  2.193519495405082 1.631799415080963 0  5.472630128027442 -1.330813078900983 0  4.750126894286386 1.343813447143193 0  5.607142857142857 -0.375 0  2.625 2.607142857142857 0  0.3921763197810531 0.375 0  5.60901753622775 0.3750000000000001 0  1.125 2.613454943235572 0  3.701856738980915 1.163867513386733 0  3.736112850688509 1.696746876851408 0  3.519183195491339 0.06065128742606851 0  3.973620778217027 -1.693401606145563 0  0.8125 -1.444978632478633 0  1.256657745408029 -0.6381828923025001 0  0 -1.125 0  5.019997778514942 0.6475044429701156 0  4.125 3 0  1.285569332703024 0.8955310332120207 0  0 -0.375 0  0.4638922275641027 -0.5625 0  2.056635259780241 -0.07226025978024064 0  2.130475508371123 -1.000827820434028 0  2.677484372338113 -1.267299126394495 0  2.848680878891876 -0.4956836878192376 0  4.937901885089369 -0.3340245904575954 0  4.393563081308854 1.919544166973803 0  4.053859126323572 0.2813938488760716 0  1.181051704329518 0.1167440895674965 0  1.971354166666667 2.607142857142857 0  4.875 3 0  2.519350561152006 0.08093582719875507 0  3.139443301924015 -1.442524927271905 0  6 2.625 0  1.849169256239503 1.945480934753207 0  1.867196483071171 0.7892354369530077 0  1.192506522009051 -1.184888428863342 0  3.375 3 0  3.603234392481833 2.536866305538572 0  3.846752908916648 -2.537707634073423 0  2.014339897513945 -1.886932065281681 0  4.038392037966526 0.8363324773944992 0  4.421242701722609 -2.552534687860327 0  3.715389848650903 -2.108856956172843 0  2.985668138820625 1.127780908772207 0  0.4500794934449803 -1.173696061598557 0  3.366760888116476 0.8891914618875614 0  1.869163043700093 -0.6107175804171328 0  2.175114838273305 -2.53928723780967 0  3.014417665538299 -2.241523065744933 0  2.625 -3 0  2.819968145332426 -2.617202329573456 0  5.625 1.3125 0  5.563263538826679 0.814027077653358 0  5.625 3 0  2.550041671270923 0.7074928970804664 0  4.014583091741168 2.59891853892166 0  0.6440729668673318 1.499523832583132 0  5.219449799568244 -1.660557808485412 0  3.474012636702472 -0.9300738420779746 0  0.8125 -2.142857142857143 0  1.875 -3 0  4.945010515846405 2.554471797033147 0  2.611388969012422 -0.8478354915063726 0  3.223746055611014 0.3371683159691745 0  4.843939757110898 -0.9483610977948225 0  4.66556954816842 -2.220888354477256 0  4.125 -3 0  4.448108395110625 -0.2524000502731018 0  5.63671875 2.05078125 0  2.822484133964224 1.491327727709286 0  3.378213092764193 1.903125093887009 0  5.607142857142858 -0.9231200445788541 0  2.12639693023183 1.100450516019641 0  5.625 -3 0  0.375 3 0  0 2.625 0  6 -2.625 0  0.3931307155906299 -0.01856779822591927 0  0.8549199714190221 -0.5218333744252657 0  0.7651723094668359 0.253768144801553 0  1.421989550604507 -2.133299471886336 0  1.582611957351803 -2.615166692128227 0  4.420331038793115 1.133144382396504 0  0.375 -3 0  0 -2.625 0  5.078156723571596 1.54697017071479 0  1.877250715260938 -1.288801575378032 0  2.409169073010687 -1.916147168931784 0  1.146151077069952 -0.268000681695328 0  1.726784828652036 0.1335728643263411 0  2.745628549924675 0.3838821021397905 0  3.011490900297165 2.613625569196862 0  5.62463365164608 -4.137655439684362e-05 0  1.875 3 0  1.125 3 0  6 0.375 0  2.625 3 0  6 -1.125 0  6 -0.375 0  4.875 -3 0  6 -1.875 0  3.375 -3 0  1.125 -3 0  0 -1.875 0  0 0.375 0  0 1.125 0  0 1.875 0  6 1.125 0  6 1.875 0  4.813017731148975 0.9677363687196439 0  2.807371623148303 2.264962208227767 0  0.3692953377255688 0.7436406761680247 0  5.615625 2.615625 0  0.9395725521479794 0.9812935874921043 0  1.390920759130215 1.238984550166515 0  0.9588795022085095 1.672288500195331 0  0.87712392565124 -2.641031728267331 0  0.3665732993114588 -1.532068934251388 0  1.841944504733106 1.591700334213738 0  4.832970185136452 0.3385359233091246 0  4.169083540479082 -0.5746148619765254 0  5.281697083409333 -0.2046640461936881 0  4.072845380968044 1.784516523483641 0  1.293029195762321 -1.543079049035419 0  4.878733886054284 -1.720697370582964 0  3.609167475697567 -1.687579152754035 0  4.836981942878573 2.222259978217028 0  4.204938267037067 -0.9128589669335569 0  5.183079748175263 -1.111742407358677 0  1.469404041858679 2.654509729682302 0  1.22880920402559 2.273525645756405 0  4.566761045622856 -1.414165869120005 0  4.531680518427715 1.606803989975667 0  1.918929241273175 2.27471131819245 0  3.590183783343969 2.184680610175416 0  1.85683899811842 0.4533569963423589 0  1.173935704088662 0.4636872214645547 0  2.116602160898525 -2.207718541460878 0  4.51821874648995 -1.042568353750147 0  2.721551512787618 -0.1859357475290837 0  5.294921875 2.001953125 0  5.288671874999999 2.670703125 0  2.199940744527116 0.7756512213396931 0  4.090519467638897 1.163401080812838 0  2.298177083333333 2.670581371753247 0  2.484362362207526 -2.687319997637033 0  3.300530569898859 1.207053005217563 0  3.936078051808127 -1.362164062673065 0  5.341218841330105 0.5689885832563615 0  4.226314635599414 0.5638853401248238 0  2.524510956818563 1.635483567726497 0  0.3219546452225031 1.389066019009203 0  3.139061555368706 -0.3133905221155423 0  3.145569907612562 -0.6461828528638952 0  3.701427442033566 -0.2272880199383185 0  1.686782510365738 -1.934662341426927 0  2.427696494631844 1.944064773844184 0  3.901817839425732 1.422433381251312 0  2.356489883772755 -0.2025512972825912 0  4.820757576351118 -0.01647699434507374 0  3.064415631228375 1.809719380809516 0  4.643002705009462 2.69782572459795 0  4.31624250429496 2.728112685900672 0  1.520100694408069 -1.314302747998057 0  3.754559308601717 -0.5375020107416889 0  0.25 -2.0625 0  0.8125 -1.826636904761905 0  4.861738621091127 -0.6367294570749906 0  1.545149590740081 2.015832101819233 0  3.857113324620078 0.04127675193819436 0  0.3162874907704933 -0.864918315983958 0  4.21293081604216 2.352874368135467 0  3.123697687162562 -2.708090473740421 0  3.415275466010259 -2.202892416689829 0  3.601103065320932 -2.727566580522146 0  1.558629964945672 -0.5289921609136927 0  3.324859026263307 -1.198136798699183 0  2.424350759683917 -1.092246517929194 0  2.789248065239812 0.8954629970670158 0  0.8882026075771248 2.364936378889839 0  0.8066140242673685 2.679750706449505 0  4.504454978490482 0.4491616076730165 0  4.26881784709759 -0.009649566552704852 0  1.313479173834523 -2.758675889510418 0  1.120577805361368 -2.179971784090952 0  3.734048623985226 0.8602850349907256 0  3.527828882622877 1.432983527791925 0  1.959527908877504 -1.578124930685265 0  0.7602573574724077 1.220872343399509 0  0.6691217533356228 0.8531987603309893 0  1.877213035764122 -2.564340152892596 0  3.304349402914068 2.552016594979913 0  4.285565286275464 -1.569057178671076 0  4.227521511146333 -1.876903861267543 0  5.34375 1.40625 0  5.71875 1.59375 0  1.56245959534423 0.766197796710638 0  0.2458241530773257 2.4375 0  0.2794123857609179 2.138568368155198 0  5.754175846922674 -2.4375 0  5.720587614239082 -2.138568368155198 0  0.6472458227887359 2.124973059628837 0  5.124241021325378 -2.352544055105642 0  5.189172233440652 -2.675873509996353 0  5.364643151640443 -2.12768524739804 0  2.298896485720138 1.348573610321417 0  0.6008689899200503 -2.745193425346304 0  0.307092513690391 -2.651812055231556 0  0.2683745826107009 -2.363146293324415 0  0.5223214285714285 -2.165178571428571 0  0.5169611136983336 2.740349995819724 0  5.607469108596883 -2.699891746740618 0  2.138439274270545 1.947386893596098 0  1.25507379660067 1.953406658386351 0  4.135759889512124 -2.476847355718572 0  2.548249345531056 -1.538893887888457 0  2.771010284190282 -2.05339728351
[...]
<CellData  Scalars="f_26-2"> 
<DataArray  type="Float64"  Name="f_26-2"  format="ascii">-1.4832352114071223e+23   -1.8404972041392416e+23   -2.7368764826915469e+23   -2.3749391900255476e+23   -2.6179555337691127e+23   -4.8119788541201734e+23   -1.7217619887524377e+23   -2.2277136429807168e+22   -1.8752171753363558e+22   -1.4749339848495385e+23   -1.2914320016119615e+23   -2.5488405113424703e+23   -9.4456216089324962e+22   -3.1129049587723050e+23   -2.6837511849623050e+22   -1.9387029618697553e+23   -2.5905896149883985e+23   -6.0476084963920178e+21   -1.9118204495607501e+23   -1.0921849444384292e+23   -3.3021475460510069e+23   -7.7081802371340463e+22   -2.0841185492023846e+23   -1.0857728076195364e+23   -1.4939493049289872e+23   -1.9231056371672667e+23   -3.4733745602823748e+23   -1.2061987373334329e+23   -1.1891012056958488e+23   -1.7890102500959258e+23   -8.6765782349457700e+22   -9.0290974498160661e+22   -1.5293870680684711e+23   -1.4353365480786881e+23   -1.5846514075698292e+23   -1.7728462979179602e+23   -2.1840679343510918e+23   4.2630338689414663e+22   -2.7372166384310246e+23   -1.8857313578684960e+23   -7.3191012189748735e+22   -1.6892599400626498e+23   -1.2140957313395832e+23   5.7784617940442711e+22   -6.2062039062133815e+23   -2.8714912355327913e+23   -3.6494575915309236e+23   -9.6471015717369587e+22   -2.3187459114667880e+23   3.2561737864140151e+21   -2.5141549396585982e+23   -1.7708004542895052e+23   -9.1996134377387287e+22   -2.0216762205873608e+23   -1.6328221162178876e+23   -1.7394887796747496e+23   -2.7029323078023989e+23   -2.0234763155899345e+23   -2.6763673570118130e+22   -2.6404104837365438e+23   -1.1279343278473673e+23   -1.7434523653630056e+23   -2.6534577488250603e+23   -1.5861725583468964e+23   -5.1364844390522426e+22   -1.9219141750425659e+23   -2.7742024978428736e+23   -3.7645267374649270e+22   -7.6779261990384240e+22   -2.0333194583626386e+23   -1.0729391418341225e+23   -8.8624345714353274e+21   -4.9024312557711537e+22   -1.6196311731274263e+23   -1.3532033822010584e+23   -2.0045951362258212e+22   -8.8324576880243746e+22   -1.6841567678622614e+23   -3.0829462268520211e+23   -4.8917169754444967e+22   -9.8538960225539541e+22   -1.4307714810987546e+23   -2.0169338737542357e+23   -3.2407268847635791e+23   -1.1983760510989998e+23   -1.8777890746213147e+23   -6.2571986330997840e+22   -1.5573104989944998e+23   -1.5275960518163877e+23   -1.6576067705136474e+23   -1.9297755289218277e+23   -1.8125029093292878e+23   -3.3436349160537436e+23   -4.0161454920219025e+22   3.3221790748371182e+22   -3.1859769265939849e+23   -1.4450118678855016e+22   -1.2929642694422255e+23   -1.4249254735603339e+23   -9.7777530703993591e+22   -9.5227939497442909e+22   -3.4103454166226685e+22   -1.0240208322494688e+23   -8.0010111554340306e+22   -1.7470705791011068e+23   -2.9930078295784112e+23   -2.4706305796806365e+23   -1.2776963388131736e+23   -2.5649449209013132e+22   -1.1200674628432709e+23   -1.2091720149579858e+23   -7.8739969646240194e+22   -8.5895911808392921e+22   -1.3173272444247311e+23   -1.5278845272974730e+23   -2.7602460223326131e+23   -4.1568695411850440e+23   -7.8425193367178039e+22   -9.2085299721531159e+22   -3.8537474336300931e+23   -2.3975167542242314e+22   -2.1962260912833433e+23   -2.1224029558634919e+23   -6.4054959339922893e+22   -1.7242675345993533e+23   -8.8467645901688478e+22   -5.1894012001083580e+23   -1.6021285162175871e+23   -3.7520540232710211e+23   -8.5631036240561428e+22   -1.3308119855279916e+23   -1.7752037087574761e+23   -1.6986126835085100e+23   -5.0351310176179420e+22   -1.4199389561543857e+22   -8.2505566954602981e+22   -1.9281195622419355e+23   -4.0790192003212030e+23   -5.4766509331090059e+22   -2.2761687553702535e+23   -1.1656206986267253e+23   -1.0809447304886248e+23   -2.9521144543242598e+23   -3.1156260441297972e+23   -3.7601912324467766e+22   -9.0842660966699594e+23   -2.0573328006275532e+22   -2.3464501988442953e+23   -1.4984805212581052e+23   -4.9898017325748966e+22   -1.1072733686344321e+23   -1.3832408987281952e+23   -1.5173198705035775e+23   -2.0196713283261305e+23   -1.7700800034197839e+23   -1.1764178157661565e+23   -1.9341492439657418e+23   1.9655244951469680e+22   -3.3658422215653984e+23   -7.4030662253648693e+22   -3.1375905928559303e+23   -1.3586229537715130e+23   -1.6940519166007364e+23   -3.0011342325825496e+23   -8.2039119216911623e+22   -3.0079011739105162e+23   -1.4489254476986106e+23   -2.5135527602504747e+23   -1.3967351578664299e+23   -1.3859769443287371e+23   -3.8106542709128655e+22   -5.8180111933767202e+22   -1.7837161832582464e+23   -4.9585155697150672e+22   -1.2564355332703970e+23   -4.3394125305994359e+23   -1.5267808394439224e+23   -1.1214328668307756e+23   -1.9604313392388375e+23   -6.8656259391282911e+22   -9.0264398520659323e+22   -2.5570676561319373e+22   -6.7581472555430400e+22   -1.1099861430962552e+23   -4.0497815110422453e+23   -3.5961985788711419e+23   -2.1455269090356729e+23   -1.8924661433609310e+23   1.4816558479719224e+22   -1.1295430526718693e+23   -5.1264018685214545e+22   -1.9652598511998085e+23   -3.5219163814877463e+22   -1.5703421796052800e+23   -3.0445798854044506e+22   -2.9152272899478626e+23   -2.3887350095164831e+23   -2.0014808671911984e+23   -6.7421876921249680e+22   -8.8090775131693074e+22   -1.7119366624428513e+22   -1.8898136933867156e+23   -2.2611612728766974e+23   -1.6013434928101741e+23   -2.2214110922203428e+23   -1.2471372909268210e+23   -5.0093612130692892e+22   -3.3301662460244862e+23   -1.4325414358830128e+23   -2.1072342356128058e+23   2.1870527775966996e+22   -8.8002574747369023e+22   -1.9266191730025985e+23   -2.7722568138132912e+22   -3.6260058810589791e+23   -2.0051669808854492e+23   -2.8302387041034333e+23   -1.1148631728975019e+23   -8.8194510669208212e+22   -3.8647536933796558e+23   -6.9895496345570991e+22   -2.1068654512990589e+23   -3.5017620825447244e+23   -1.6134777166577082e+23   -2.1938802622859717e+23   -2.1951453041609159e+23   -2.9715824449043690e+22   -7.8573391921693527e+22   4.6963654588605571e+22   -1.1848105866115992e+23   3.2545151637227569e+21   -3.2494198584663127e+22   -8.7169483601842880e+22   -1.0674957830900105e+23   -2.6596740535542572e+23   -2.5820555386306088e+23   -1.8150096766667200e+23   -1.0477200963804304e+23   -6.7294564593592414e+22   -6.6787322893478224e+22   -3.5257103828109622e+22   -1.6293791663165771e+23   -2.3914511076154159e+23   -7.9015407433826865e+22   -2.9976153455819993e+23   -1.0817950576004188e+23   -3.0871669108112905e+23   -1.0029757456645831e+23   -5.5136774721357094e+22   2.4099475385380579e+22   -5.1021607360701131e+22   -5.5878534389291366e+22   -2.0359740837712921e+23   -1.4183930635106880e+23   -8.8985877651368721e+22   -6.5216438348373419e+22   -8.2216169846505730e+22   -1.1028863517114868e+23   3.6956945268584099e+22   -1.2386280956751804e+23   -7.2167387873468266e+22   -3.1766429413657138e+23   -1.0976336820477484e+23   -1.6263761945759013e+23   -1.3026046696646431e+23   -1.9561377080998239e+23   -7.0700650351332382e+22   -1.1802325381363508e+23   -2.5606170688907319e+23   -1.1058106635322250e+22   -1.5610062271911468e+23   -2.4255149841108669e+23   -2.9217426874120747e+23   -2.4897253282589565e+23   -1.2423193541610152e+22   -5.0064680112564273e+22   -2.4832143167777963e+22   -2.0266039972267751e+23   -1.1630127575025599e+23   -5.4234422992732032e+22   -1.4991950950445217e+23   -2.8691091512962335e+22   -2.1719926571650930e+23   -1.1503537220720248e+23   -6.2807273039285409e+22   -4.7740742605071666e+22   -1.6827342591738884e+23   -1.6672549381739740e+23   -1.3220256919697591e+23   1.4201379960509358e+22   -1.8676540393207369e+23   -2.0488366930562443e+23   2.0104273970202623e+21   -6.7664698208154089e+22   -8.5268609016560202e+22   -1.5271282104207716e+23   -1.5123402400058468e+23   -3.4228580399014352e+22   -1.7674373518847549e+23   -4.8413228807917542e+23   -2.5156997955699513e+23   -1.4278745000577079e+23   -1.6196655810640844e+23   -1.0172040756251247e+23   -5.2764350830757844e+22   -7.2905897881874234e+22   -3.0973788744975177e+23   -3.2295134908850830e+22   -1.1878451558899921e+23   -7.9315428399395480e+22   -9.9983000321339523e+22   -1.2215059137520433e+23   -2.3937194811035311e+23   -1.1732788766097893e+23   -1.4982370840720121e+23   -1.0716970218579550e+23   -1.3652269891312380e+23   -1.6733474077196654e+23   -1.0635060867179859e+23   -2.5424654141759826e+23   -2.6944289150492388e+23   -8.1596942380905552e+22   -1.4021918789473993e+23   -2.3473748438031633e+23   -9.8978168517966051e+22   -1.3730427369437489e+23   -1.4300725324024241e+23   -2.1400348603822033e+23   -1.9838178206363216e+23   1.4489548724197873e+22   -1.9794941814183162e+23   -1.3512351398309791e+23   -2.0116002454603025e+23   -2.3956843432286226e+23   -1.4001081811614897e+23   -2.1741093291542409e+23   -6.8750633486978965e+22   -5.8130840030416583e+22   -1.2312380311260135e+23   -1.7886662746283558e+23   -4.8359831952626664e+22   -9.4413901891658955e+22   -8.4518020354228479e+22   -7.8233898254601785e+22   -6.7188977233981751e+22   -1.8690686693372351e+23   -8.9142119249037532e+22   -5.4650396061019343e+22   -1.7615593265076086e+23   -9.0780377443884866e+22   -9.0363666281104025e+22   -1.0169738442343886e+23   9.2417305060927083e+22   -2.3689370199938593e+23   -2.6800541997332080e+23   -7.2309189718841642e+22   -1.1180588900058410e+23   -7.0000550401168095e+22   -4.2918187534435131e+22   -1.0502963925992905e+23   -7.0211414083429258e+22   -3.4647649010527975e+23   2.1377569391070006e+21   -1.4595537261453680e+23   -6.4470991020748777e+22   -1.5331916415595962e+23   -2.7239622901077567e+23   -3.2327452713176903e+23   -1.4567224700945412e+23   -3.1258926359809520e+23   -8.9091064262848462e+22   -2.4290593133270777e+23   -6.6731200098541869e+22   -1.3120921393724428e+23   -7.8383831513369711e+22   -1.0809305322498237e+23   -1.7186916248465080e+23   -8.8612359485019493e+22   -2.4412788930034615e+23   -1.1737093610324497e+23   -5.7474828823612445e+22   -4.5934373478677885e+22   -1.2819765693123282e+23   -3.9397275990773236e+22   -1.3728505330729129e+23   4.9202703465244042e+22   -1.6646329952851916e+23   -1.2429370160818355e+23   5.3169683885431487e+22   -1.7258571533511913e+23   -6.9433982485265425e+22   -1.1395067711555298e+23   -1.2546275577710722e+23   -2.0329106904234017e+23   -1.3025380056584355e+23   -9.6815478958722969e+22   3.8288484564326549e+22   -3.6062874525666778e+23   -1.7906741578823534e+23   -1.6034033347553943e+23   -1.6409661143757469e+23   -7.5808931762042065e+22   -3.0473318593582460e+22   -9.3417136160703341e+22   -1.4722011984433589e+23   -3.5051945058907497e+23   -1.5495048880367637e+23   -5.4687825206717950e+23   -1.4501161072416333e+23   -2.6404426247889756e+23   2.5112243234079982e+22   -1.4000373389207810e+23   -1.3878944613505831e+23   -2.6846716649258938e+22   -5.8835448644901917e+22   -1.9828104487266101e+23   -2.6549817155570312e+23   -3.7694219959565935e+22   -5.2641096184321024e+22   -8.7756086351879098e+22   -1.1965759809207983e+23   -2.1563177923342456e+23   -1.0237923995993849e+23   -3.3579347425339079e+23   -6.8249631368219273e+22   -8.2356622280942323e+22   -1.2596125381146809e+23   -3.4640381979553402e+22   3.2553115743916044e+22   -1.5894917129921556e+23   -1.2413858306536966e+23   -1.5195627393133384e+23   -8.6348057927786892e+22   -1.1181503565864965e+23   -1.0511908288824074e+22   -2.3805854176449235e+23   -1.5405955392713236e+22   -4.6899409596121621e+22   -1.0080669577105937e+23   5.9471171147249130e+20   -2.3172273845496262e+23   -2.0335934812703010e+23   -8.5210120584782158e+22   -2.4856765377033168e+23   -2.7210067056442879e+23   -1.8025927764031447e+23   -5.8501388614940804e+22   -1.4788868840192057e+23   -1.2365239225377649e+23   -1.5546430933977440e+23   -6.7631964856695780e+22   -2.7914797777260381e+23   -2.4509845163936512e+23   -1.8812299443408023e+23   -1.6149900302731809e+23   -9.6717770058051229e+21   -2.5338967835522485e+23   -1.4100602265963266e+23   -1.7330459219609495e+23   -1.4494903023344791e+23   -2.8862817559163693e+23   -8.1702119031137756e+22   -8.8439349541420204e+22   -2.8659681033143655e+22   2.5333829890802599e+22   -2.5131410743028897e+23   -1.5439633926195009e+23   -2.5967509423648198e+23   -5.1087283396981970e+23   -2.0174612920682514e+23   -1.2701430760531355e+23   -8.6631880721763590e+22   -4.0279567381562804e+22   -1.4338244077685025e+23   -2.6458675605519029e+23   -8.7280620833350198e+22   -1.7944058920195533e+23   -1.2082934947532756e+23   -1.4164773508172920e+23   -8.0340585892075136e+22   -3.0228820618046679e+23   -1.7609806712682971e+23   -1.7696477026638851e+23   -1.0983709049008233e+23   -1.5640728888633967e+23   -4.5004831770349192e+23   -1.8098768160449116e+23   -1.6242378129315606e+23   -1.1267374661705936e+23   -1.0673349572008540e+23   -1.1781226526293042e+23   -5.3590856922886553e+22   -8.3545928307940207e+22   -3.4757942769219057e+22   -6.0071771374832566e+22   -1.1094101814441498e+23   -2.4027914094704186e+23   1.8716638113663457e+22   1.9122826645538178e+23   -1.3459098608866836e+23   -2.5164066596849390e+22   -1.3417107075914416e+23   -1.0708021789627238e+23   -7.5626339186146680e+22   -1.9639352678394342e+23   -1.8167085159911028e+23   -3.2023964235135060e+23   -4.6241920521556279e+22   -1.0344097789915537e+23   -1.1189106897348438e+23   -4.2424828068624545e+21   2.8342476068925146e+22   -2.4700808493764168e+23   -2.2809976100672296e+22   -7.8519193210803150e+22   -2.3772319344191463e+23   -2.7725552681207622e+23   -2.2920941816401162e+23   -8.6169572515709117e+21   -3.9546044765441331e+23   -1.2716769992520810e+23   -3.1257657686965030e+23   -8.4014059510905711e+21   -3.9103362628337671e+22   -1.0186809771002572e+23   -1.0021218150282213e+23   -2.3335541854725558e+23   -1.3541469993487835e+23   -6.2060428500018271e+22   -7.8174288770029402e+22   -1.8396443323415385e+23   -4.0363792491818049e+22   -4.8078399644586471e+22   3.3014031546644732e+20   3.4788293483751792e+22   -1.8550983979551288e+22   -1.1254161178012563e+23   -1.9822043602223881e+23   -3.8752372506210551e+23   -8.0425806043246596e+22   -5.5840383561907049e+22   -5.0683788983739970e+22   -2.9008933090158543e+23   -1.7825290480273421e+23   9.9538411773630066e+22   -1.4772772398024284e+23   -6.1840748900928367e+22   -1.7276685275592184e+23   -1.9003196546369577e+23   -1.7196857528814854e+23   -1.7151893705968656e+23   -1.3970138101805740e+23   -2.2907019461486042e+23   -1.1910143654359016e+23   -1.4630167428687019e+23   2.9820172382956673e+22   -1.3707398871716805e+23   -1.2086839603121582e+23   -1.7612393316885858e+23   -2.7673645370789907e+23   -1.0147291013934922e+23   -8.6094217331288868e+22   -1.8928365604554795e+23   -9.7340597561125945e+22   -2.3347443479068030e+23   -1.3155788385875353e+23   -1.9467586255473284e+23   -1.2582920318629608e+21   -7.4791976293491439e+22   -1.0326707199466022e+23   -8.2892039827877026e+22   -7.6232341389968258e+22   -1.0258995790205143e+23   -1.2392937020362551e+23   -1.2026444475577881e+23   -1.9177629451924312e+23   -2.8717249839673867e+23   -9.8236594435902920e+21   -1.7921794947961941e+23   -7.9257700143101188e+22   -1.3147038508663003e+23   -1.7212330095813293e+23   -2.9806299494954145e+23   -8.0528247111501130e+22   -2.6490357366080181e+23   -9.0796239811545756e+22   -1.2476292513009480e+23   -3.7417848380645674e+22   8.4006878625507770e+19   -1.1240421761734726e+23   -1.2499422656767115e+23   -2.2821657465728683e+23   -2.4717532077887431e+22   -2.9476265777061496e+22   -5.5667326233612495e+22   -1.3471168876680006e+23   -2.0689282636201253e+23   -4.1364733977597173e+23   -3.5306746960358247e+22   -4.6262312362831807e+22   -1.4308521421305532e+23   -9.7837934103449173e+22   -2.5580889967924683e+23   -1.0142909663609962e+23   -1.7015256289719230e+23   -4.4499851781598832e+22   -3.1747705580900366e+23   -1.8369794920750696e+23   -1.4679456793433723e+23   -2.0242201263415611e+23   -2.2918932236627431e+23   -1.8731601736674284e+23   -7.5242355557033222e+22   -1.0286666866498172e+23   -9.4192405478379048e+22   -1.1468507788720952e+23   -1.2812043889607189e+23   -5.9174755931836503e+22   -1.0134028560944897e+23   -1.4354198407596008e+23   -1.5369539403427713e+23   -2.0445389637866033e+22   -1.6493218015070889e+23   -1.2556636022979261e+23   -2.3177518429361422e+23   -9.2262113090254353e+20   -6.1597976254995310e+22   -1.5942792561238442e+23   -3.1232855041885285e+22   -8.1298093432325869e+22   -1.7783830170407430e+22   -7.3781794929966571e+22   -9.1977175812799623e+22   -1.7955537390706765e+22   -4.3874641438475748e+22   -2.5226499541308760e+23   -1.2545437367386130e+23   -9.1974856005259807e+22   -1.1329819692842192e+23   -1.2525715034714887e+23   -1.5882237929277464e+23   -7.5359776268005879e+22   2.2125451889605880e+21   9.0520599849673425e+21   -8.2264449863162857e+22   -1.2631645037555891e+22   -6.7464243173212121e+22   6.1334454958810653e+21   -1.3811141484908541e+23   -1.2046114695102261e+23   -1.3152096250219248e+21   -7.8437514251858828e+22   -1.0838197113115238e+23   -5.9322691044308536e+22   -1.1843343011283988e+23   -2.0047035953801064e+23   -2.4479827411940572e+23   -7.9690409093183492e+22   -2.6832069890213195e+23   -1.5477457758946698e+23   -9.3316019257365206e+22   -2.3656983993997686e+23   -1.6343558547225869e+23   -1.9034919301591924e+22   -3.9458185978539661e+21   -8.6568678437623473e+22   -2.0281283778277845e+23   -1.2164431947439683e+23   -8.3009586196268097e+22   -1.1206526318021517e+22   -5.6715468730813571e+22   -1.3089034730282601e+23   -5.6996746039443436e+22   -1.2974789162815157e+22   4.2380416808889407e+22   -7.6075373878439343e+22   -1.2108950834796021e+23   -3.0732810856272971e+22   -2.2435219081034834e+22   -1.8060285532654273e+23   1.1445828202936899e+22   -1.2728821172832004e+23   -1.4317653362006458e+22   -1.4301641651827132e+23   -1.1073225390100374e+23   -9.5603317138494564e+22   -1.0170772065360410e+23   -2.0293659916851799e+22   -1.0342278970941656e+23   -3.2414541725991724e+22   8.4637584173779347e+20   1.5123636294420892e+22   3.1377042789994450e+22   -1.6137589640067369e+23   -8.6372049914868131e+22   -1.0990478185121593e+23   -2.9368898686545675e+22   6.3237430543118129e+22   -7.9340501444134353e+22   -2.8294478906577104e+23   -1.0461425472673555e+23   -1.2382871712376906e+23   -1.1563347258473431e+23   5.3221732786340805e+21   -2.4015167646688539e+22   3.6318003419954977e+22   -8.9674128787241683e+22   -8.6400443192598757e+22   -1.7768221069065510e+23   -1.8509569632808011e+23   -1.5949259307616223e+23   -2.2085605052073058e+23   -1.3745374285742927e+23   -1.5434281389103935e+23   -1.8443090628533073e+23   -2.5845471153796898e+23   -1.7118440374335758e+23   -8.6493632587751840e+22   -1.5785061973895519e+23   -2.1106730835987706e+23   -4.3335629529807931e+22   -1.3208025966211413e+23   -1.0408981829136498e+23   -1.4960666959294242e+23   -7.5424222862458179e+22   -2.7829577308826894e+21   -1.6504091775906591e+23   -3.3845441765469888e+23   -1.2729662474384764e+23   -4.1168599804362210e+22   -1.3997516654422122e+23   -2.8287031153459832e+20   -4.8817691743306335e+22   -2.5644834361140352e+22   2.3420270088947828e+22   -4.4883337870895716e+22   -1.8273969611667010e+22   -1.3928873797203888e+23   -1.5994746740755045e+23   -1.7617664334335108e+22   -9.2521330209896094e+22   -1.6865115794136919e+23   4.6626270492956413e+22   1.2682481901935487e+23   -1.7880314818469308e+23   1.1136622404821463e+23   -1.5542585935820984e+23   -1.9303099311040814e+23   -4.0162109875146692e+22   1.3793940514963813e+22   -2.3042643777235979e+23   -8.0602696805201815e+22   3.5817829141447574e+21   -1.6006450277657125e+23   -1.0803321291447401e+23   -1.7343008759270861e+22   -2.2166721180347783e+23   -1.1720714434481636e+23   -2.5351386105916871e+22   -7.0538274077818803e+22   -4.6650669912830406e+22   -1.0170432765049439e+23   -1.1343086734062419e+23   -7.3955657249521895e+22   -1.9464072957620928e+23   -3.9933158936633753e+22   -1.2760010726146992e+22   -1.710343817936683