<?xml version="1.0"?>
<VTKFile type="UnstructuredGrid"  version="0.1"  >
<UnstructuredGrid>
<Piece  NumberOfPoints="387" NumberOfCells="708">
<Points>
<DataArray  type="Float64"  NumberOfComponents="3"  format="ascii">0 3 0  0 -3 0  6 -3 0  6 3 0  3 -3 0  6 0 0  3 3 0  0 0 0  3 0 0  0 -1.5 0  1.5 -3 0  1.5 3 0  0 1.5 0  6 -1.5 0  4.5 -3 0  6 1.5 0  4.5 3 0  4.25 -1.25 0  1.75 1.25 0  2.25 -1.5 0  4.5 0.75 0  1.541666666666667 -0.2083333333333333 0  3.219827586206896 1.521551724137931 0  1.125 -1.875 0  4.875 1.875 0  0.8702651515151515 0.631628787878788 0  2.25 2.214285714285714 0  3.316176470588236 -1.904411764705882 0  5.214285714285714 -0.75 0  5.03125 -2.03125 0  0.96875 2.03125 0  4.041666666666667 -0.2083333333333333 0  0.8205128205128206 -0.9134615384615387 0  3.942582294752138 2.189194098250713 0  3.061487638533674 -0.968243819266837 0  2.192708333333333 0.4427083333333334 0  4.157850026972511 -2.182329047049442 0  2.331456616463011 -0.5285296485744057 0  3.654761904761905 0.5654761904761902 0  5.25 1.125 0  2.563673341677096 -2.280663329161452 0  5.126674107142857 0.1283482142857142 0  0.75 -3 0  0 -2.25 0  6 2.25 0  5.25 3 0  0.7680051888903191 -0.1384245958639337 0  1.617229471026718 -1.006949429867069 0  4.218940341429579 1.468686552856807 0  3.75 -3 0  2.25 -3 0  0.75 3 0  5.25 -3 0  6 -0.75 0  0 -0.75 0  0 0.75 0  2.25 3 0  6 -2.25 0  0 2.25 0  3.75 3 0  6 0.75 0  1.787573018358365 -2.279142327213878 0  3.195025188237337 2.273430909158844 0  2.528159645294386 1.151699106559287 0  1.041598427383826 1.322848427383826 0  1.520951704545454 0.4634232954545453 0  1.580357142857143 2.325892857142857 0  4.919642857142857 -1.361607142857143 0  4.54981623521892 -0.6483700862895494 0  2.99317863826574 0.6697091957925523 0  3.450169349029507 -0.4574865881858001 0  3.605016126014028 -1.323102984840902 0  2.745144658907412 1.882241931337371 0  0.4898065586600511 1.092777516238393 0  0.5 -1.875 0  1.217028489597945 -2.469323836800685 0  1.659912685567181 -1.604738056701542 0  5.4375 1.6875 0  5.34375 2.34375 0  4.52741779500503 2.384139265001677 0  3.375 -2.514804579549941 0  0.5446428571428571 -2.455357142857143 0  2.766554087216865 -1.745795909102064 0  4.525516559010988 0.1490283123570637 0  3.87554132162248 -0.8280516069565407 0  4.53622906132958 -1.76963146596888 0  0.4243951612903226 1.875 0  0.554851858345021 2.446861709948876 0  5.575604838709677 -1.875 0  5.445148141654979 -2.446861709948876 0  4.875 -2.575604838709677 0  1.440573466105381 1.721823466105381 0  2.193519495405082 1.631799415080963 0  5.472630128027442 -1.330813078900983 0  4.750126894286386 1.343813447143193 0  5.607142857142857 -0.375 0  2.625 2.607142857142857 0  0.3921763197810531 0.375 0  5.60901753622775 0.3750000000000001 0  1.125 2.613454943235572 0  3.701856738980915 1.163867513386733 0  3.736112850688509 1.696746876851408 0  3.519183195491339 0.06065128742606851 0  3.973620778217027 -1.693401606145563 0  0.8125 -1.444978632478633 0  1.256657745408029 -0.6381828923025001 0  0 -1.125 0  5.019997778514942 0.6475044429701156 0  4.125 3 0  1.285569332703024 0.8955310332120207 0  0 -0.375 0  0.4638922275641027 -0.5625 0  2.056635259780241 -0.07226025978024064 0  2.130475508371123 -1.000827820434028 0  2.677484372338113 -1.267299126394495 0  2.848680878891876 -0.4956836878192376 0  4.937901885089369 -0.3340245904575954 0  4.393563081308854 1.919544166973803 0  4.053859126323572 0.2813938488760716 0  1.181051704329518 0.1167440895674965 0  1.971354166666667 2.607142857142857 0  4.875 3 0  2.519350561152006 0.08093582719875507 0  3.139443301924015 -1.442524927271905 0  6 2.625 0  1.849169256239503 1.945480934753207 0  1.867196483071171 0.7892354369530077 0  1.192506522009051 -1.184888428863342 0  3.375 3 0  3.603234392481833 2.536866305538572 0  3.846752908916648 -2.537707634073423 0  2.014339897513945 -1.886932065281681 0  4.038392037966526 0.8363324773944992 0  4.421242701722609 -2.552534687860327 0  3.715389848650903 -2.108856956172843 0  2.985668138820625 1.127780908772207 0  0.4500794934449803 -1.173696061598557 0  3.366760888116476 0.8891914618875614 0  1.869163043700093 -0.6107175804171328 0  2.175114838273305 -2.53928723780967 0  3.014417665538299 -2.241523065744933 0  2.625 -3 0  2.819968145332426 -2.617202329573456 0  5.625 1.3125 0  5.563263538826679 0.814027077653358 0  5.625 3 0  2.550041671270923 0.7074928970804664 0  4.014583091741168 2.59891853892166 0  0.6440729668673318 1.499523832583132 0  5.219449799568244 -1.660557808485412 0  3.474012636702472 -0.9300738420779746 0  0.8125 -2.142857142857143 0  1.875 -3 0  4.945010515846405 2.554471797033147 0  2.611388969012422 -0.8478354915063726 0  3.223746055611014 0.3371683159691745 0  4.843939757110898 -0.9483610977948225 0  4.66556954816842 -2.220888354477256 0  4.125 -3 0  4.448108395110625 -0.2524000502731018 0  5.63671875 2.05078125 0  2.822484133964224 1.491327727709286 0  3.378213092764193 1.903125093887009 0  5.607142857142858 -0.9231200445788541 0  2.12639693023183 1.100450516019641 0  5.625 -3 0  0.375 3 0  0 2.625 0  6 -2.625 0  0.3931307155906299 -0.01856779822591927 0  0.7651723094668359 0.253768144801553 0  0.8549199714190221 -0.5218333744252657 0  1.421989550604507 -2.133299471886336 0  1.582611957351803 -2.615166692128227 0  4.420331038793115 1.133144382396504 0  0.375 -3 0  0 -2.625 0  5.078156723571596 1.54697017071479 0  1.877250715260938 -1.288801575378032 0  2.409169073010687 -1.916147168931784 0  1.146151077069952 -0.268000681695328 0  1.726784828652036 0.1335728643263411 0  2.745628549924675 0.3838821021397905 0  3.011490900297165 2.613625569196862 0  5.62463365164608 -4.137655439684362e-05 0  1.875 3 0  1.125 3 0  6 0.375 0  2.625 3 0  6 -1.125 0  6 -0.375 0  4.875 -3 0  6 -1.875 0  3.375 -3 0  1.125 -3 0  0 -1.875 0  0 0.375 0  0 1.125 0  0 1.875 0  6 1.125 0  6 1.875 0  4.813017731148975 0.9677363687196439 0  2.807371623148303 2.264962208227767 0  0.3692953377255688 0.7436406761680247 0  5.615625 2.615625 0  0.9395725521479794 0.9812935874921043 0  1.390920759130215 1.238984550166515 0  0.9588795022085095 1.672288500195331 0  0.87712392565124 -2.641031728267331 0  0.3665732993114588 -1.532068934251388 0  1.841944504733106 1.591700334213738 0  4.832970185136452 0.3385359233091246 0  4.169083540479082 -0.5746148619765254 0  5.281697083409333 -0.2046640461936881 0  4.072845380968044 1.784516523483641 0  1.293029195762321 -1.543079049035419 0  4.878733886054284 -1.720697370582964 0  3.609167475697567 -1.687579152754035 0  4.836981942878573 2.222259978217028 0  4.204938267037067 -0.9128589669335569 0  5.183079748175263 -1.111742407358677 0  1.22880920402559 2.273525645756405 0  1.469404041858679 2.654509729682302 0  4.566761045622856 -1.414165869120005 0  4.531680518427715 1.606803989975667 0  1.918929241273175 2.27471131819245 0  3.526908551984126 2.207147627530056 0  1.85683899811842 0.4533569963423589 0  1.173935704088662 0.4636872214645547 0  2.116602160898525 -2.207718541460878 0  4.51821874648995 -1.042568353750147 0  2.721551512787618 -0.1859357475290837 0  5.294921875 2.001953125 0  5.288671874999999 2.670703125 0  2.199940744527116 0.7756512213396931 0  4.090519467638897 1.163401080812838 0  2.298177083333333 2.670581371753247 0  2.484362362207526 -2.687319997637033 0  3.300530569898859 1.207053005217563 0  3.936078051808127 -1.362164062673065 0  5.341218841330105 0.5689885832563615 0  4.226314635599414 0.5638853401248238 0  2.524510956818563 1.635483567726497 0  0.3219546452225031 1.389066019009203 0  3.139061555368706 -0.3133905221155423 0  3.145569907612562 -0.6461828528638952 0  3.701427442033566 -0.2272880199383185 0  1.686782510365738 -1.934662341426927 0  2.427696494631844 1.944064773844184 0  3.901817839425732 1.422433381251312 0  2.356489883772755 -0.2025512972825912 0  4.820757576351118 -0.01647699434507374 0  3.064415631228375 1.809719380809516 0  4.643002705009462 2.69782572459795 0  4.31624250429496 2.728112685900672 0  1.520100694408069 -1.314302747998057 0  3.754559308601717 -0.5375020107416889 0  0.25 -2.0625 0  0.8125 -1.826636904761905 0  4.861738621091127 -0.6367294570749906 0  1.545149590740081 2.015832101819233 0  3.857113324620078 0.04127675193819436 0  0.2479605082936806 -0.9375 0  4.21293081604216 2.352874368135467 0  3.123697687162562 -2.708090473740421 0  3.415275466010259 -2.202892416689829 0  3.601103065320932 -2.727566580522146 0  1.558629964945672 -0.5289921609136927 0  3.324859026263307 -1.198136798699183 0  2.424350759683917 -1.092246517929194 0  2.746461744851735 0.9398108087856579 0  0.8882026075771248 2.364936378889839 0  0.8066140242673685 2.679750706449505 0  4.504454978490482 0.4491616076730165 0  4.26881784709759 -0.009649566552704852 0  1.3125 -2.75919801263958 0  1.120577805361368 -2.179971784090952 0  3.734048623985226 0.8602850349907256 0  3.527828882622877 1.432983527791925 0  1.959527908877504 -1.578124930685265 0  0.7602573574724077 1.220872343399509 0  0.6691217533356228 0.8531987603309893 0  1.877213035764122 -2.564340152892596 0  3.32172153715047 2.685939810104955 0  4.285565286275464 -1.569057178671076 0  4.227521511146333 -1.876903861267543 0  5.34375 1.40625 0  5.71875 1.59375 0  1.56245959534423 0.766197796710638 0  0.2458241530773257 2.4375 0  0.2794123857609179 2.138568368155198 0  5.754175846922674 -2.4375 0  5.720587614239082 -2.138568368155198 0  0.6472458227887359 2.124973059628837 0  5.124241021325378 -2.352544055105642 0  5.189172233440652 -2.675873509996353 0  5.364643151640443 -2.12768524739804 0  2.298896485720138 1.348573610321417 0  0.6008689899200503 -2.745193425346304 0  0.307092513690391 -2.651812055231556 0  0.2683745826107009 -2.363146293324415 0  0.5223214285714285 -2.165178571428571 0  0.3925308914031174 2.699891746740618 0  5.607469108596883 -2.699891746740618 0  2.138365140930822 1.917102089073091 0  1.25507379660067 1.953406658386351 0  4.135759889512124 -2.476847355718572 0  0.5330865684534913 -0.8980875812659357 0  2.548249345531056 -1.538893887888457 0  2.67686064875775
[...]
<CellData  Scalars="f_26-2"> 
<DataArray  type="Float64"  Name="f_26-2"  format="ascii">9.7255333131949838e+77   6.2273769640849349e+78   5.6820426210439335e+78   1.3697623386273825e+79   2.9899717963608531e+78   4.7202772907738484e+78   -2.3348441499100427e+78   1.6045113721698097e+78   -6.0220954223531614e+76   1.4407776801269859e+77   2.5021997607622591e+78   -5.3045191665677194e+78   -2.0776408972233542e+78   -4.8125604974883922e+78   -3.5519987785349597e+76   -1.2139096719655221e+78   -4.3434433693208541e+78   6.2650617126240802e+77   -9.9392161208241755e+77   -3.0287312227120254e+77   3.8307661303582018e+77   -1.6886388743758660e+78   -1.4650527210825074e+78   4.7644697775365243e+77   1.2141620580605968e+78   -4.8349068293599875e+77   7.7767878772351009e+78   1.0522709151462863e+78   1.3599320188034262e+78   -1.5284009306002143e+77   4.5168838965263317e+77   -2.6234022223374615e+78   -6.4270475707566259e+75   -4.8248523312726179e+78   3.5724507035034245e+78   3.3685716840142763e+78   -1.0441096037507767e+77   2.9813576306214304e+77   -3.8519135085770096e+78   9.0440330656632173e+77   1.7618086884875413e+78   -8.8481428302696316e+76   -2.5539512008020562e+78   -2.7581113784825736e+78   -8.3438083539120632e+78   -3.7811172661128673e+78   -3.3394668058864378e+78   -1.0506423268007083e+80   5.7593986623394308e+78   -4.7469455272134058e+78   5.0238081670780400e+78   -7.7421431058341661e+78   4.5076325731180077e+78   8.9240350435785232e+77   3.7073014437433546e+78   3.2736474702886128e+78   -5.9308068941586682e+78   -2.6901730211346207e+78   -1.5357872107401243e+77   -1.8455601194903715e+77   2.6831483984885635e+77   4.2359741703582997e+77   -2.5992827176363463e+77   -9.0978755582778033e+77   1.7953372131869245e+79   -3.3328378869695552e+79   2.3940878363137202e+77   -1.3466084400906276e+79   -7.5134362982392316e+77   1.9628530440620965e+78   -9.4244969731367488e+77   -3.7072853928665137e+78   1.2370668178655412e+78   1.4556941504470371e+78   -6.6702081180864257e+77   -1.9119228514353718e+78   4.8165127838619406e+78   2.8750843405213680e+77   -1.6028263346644786e+78   -3.2258295951927298e+76   -3.2489311084255963e+77   -1.8290675811600395e+77   -3.5647765846843823e+77   7.5873161033124558e+77   6.4723515054173534e+77   1.2444000002077884e+78   -4.7850914266406404e+77   1.0168656738605206e+77   -6.7016443235455746e+77   -1.2441209914626482e+78   3.1384978926784027e+77   -2.3996203114213555e+78   -9.0997351216106555e+77   2.0644428259523166e+77   6.0200245387007235e+77   5.1225992333035120e+77   -1.0251684439985696e+78   -1.4622469722078796e+78   -8.0330918274496950e+79   3.5604951847562130e+78   3.2652180737102872e+78   1.0332777614533356e+79   3.6223898083041228e+78   4.8478769949445778e+78   -1.4444878592366397e+78   -7.3111327969884196e+78   1.2677256417786571e+80   -1.9735984554213145e+78   -3.0841736455076704e+78   1.3886044364116036e+78   2.2281619075427762e+78   -2.2413151691184477e+78   -1.8848819190197737e+78   -6.0762641265654782e+77   -4.5829332471828230e+77   1.4095921947928473e+77   8.9203814570112577e+76   -1.1757419097787579e+78   -2.8262383810989729e+77   2.4135981835548340e+77   1.0102421076178145e+78   -9.8083519111953604e+76   -1.4883858298200312e+78   2.4567584943968365e+77   6.9398011748134064e+76   -1.0156428386507350e+77   -2.0237675171924321e+77   2.0925360321007687e+79   -2.8197347607216904e+76   -3.5243978506373482e+78   -6.7425120805221063e+78   1.6484498584334716e+78   1.3116059248905020e+79   -9.0910228131411043e+77   -1.3005646230100909e+78   -1.5859549844138609e+78   2.9163156049882173e+79   9.2493526876620616e+78   -1.5649970428161584e+78   -2.5859981114368793e+78   -2.1921901461012934e+78   -2.4996953357002892e+78   -1.7663512637479893e+78   -6.7567991029294312e+77   2.1724134707847937e+77   -4.7079929180167164e+76   6.3649460520453473e+78   3.0805940682059128e+78   8.1762705292935324e+76   3.1166123971530886e+78   -3.2517411050948112e+78   -8.4906269403206563e+78   -1.9203992039986552e+78   -3.1051881964447778e+78   6.1972039881667868e+76   -2.3889064198586498e+77   8.9589656828095889e+77   1.0395522577521900e+77   -3.9945509768373645e+79   -6.0850165362267808e+78   -5.8920679524994652e+79   2.0533261544013407e+78   1.0962479101785421e+78   1.5188219737294878e+78   1.6754035296766238e+78   1.4089361655301283e+78   1.2496875041987041e+78   2.1280223714736192e+78   4.7625728176415528e+77   2.5135516611911131e+77   -1.2359516440467788e+78   -1.5737832715725865e+78   -7.4146448115380389e+78   -7.8589982347534508e+78   -1.5131635558522333e+78   -8.2502322456965173e+77   1.8136976452102116e+78   2.9838252010502516e+78   2.0649426495775007e+78   1.0256138864948156e+79   5.9158500755768772e+79   1.0010167295690039e+79   1.5756401869492770e+77   -2.7676883918850972e+77   3.4419550362785312e+77   9.8684963843438212e+77   2.1403449216402944e+78   -5.7566244473797315e+78   -4.3634585841033158e+77   -1.1238400964146336e+77   -6.6529593905419648e+77   -6.2399203972558437e+76   3.6166848106744171e+78   4.2500456216841802e+78   2.5552961952478542e+78   3.2769887556701349e+78   4.2293060579956899e+79   7.3268288724190272e+78   2.9610680840916072e+77   2.6394277316357361e+78   2.7895000495297960e+78   -2.5433845363686958e+78   -3.0077928377547850e+78   -3.3009005216486868e+78   -1.8651593013084799e+78   1.6544205331795088e+77   3.8440998469179641e+77   -1.3195321447845609e+78   -9.0535341053889612e+77   1.5868189910510403e+78   3.3476641442932291e+78   -1.1994887157914196e+78   -1.1600317170216484e+78   1.4892265226338229e+78   2.0319601685717996e+78   -7.5040689716445296e+77   1.2967545741530546e+78   9.6814014460328656e+77   -3.6413401310735622e+78   -2.3432575000199263e+78   -1.8678048883091120e+79   -2.9640399901382172e+79   6.7396389297208401e+79   5.4241125490087076e+79   -6.8107965201301446e+77   8.6951072845699884e+79   8.8340179531248107e+79   -9.0934034186337137e+76   -3.9892858479010370e+77   7.8995194147671083e+79   3.8476352010418180e+79   -1.1365747602383988e+78   2.9961791905628729e+77   1.7813110475679423e+76   1.5925126212725364e+77   7.1090639072369381e+77   7.7923982618852271e+77   1.1998650998405535e+79   -1.8583992736556018e+78   -4.5741454042812293e+79   -8.4024713795375329e+79   -9.8379986064434822e+78   -1.0867438162442979e+79   2.5693673378548670e+78   1.9706261204401139e+78   -9.1454672876535781e+77   8.7067020086143812e+76   -8.9844906819095647e+76   -5.6564424521339489e+77   -1.2263660327161169e+77   4.2469533497502007e+76   -1.3420389001836708e+79   -1.3831058945945129e+78   -1.3687434435465317e+78   -5.3540254005670806e+77   7.2306891783284604e+79   -3.2609714864425433e+77   -9.3732062269759998e+77   -1.1073559045640829e+78   -1.7528795503515551e+78   7.9173478683647332e+77   -1.0311251731704725e+78   -5.0032982828558954e+77   1.7207781451245308e+77   -2.2299134358171212e+78   -5.3847796426266023e+78   -9.1899232252156894e+77   3.9359742005229248e+78   -8.0658500932928051e+77   -1.3080028522158143e+78   -1.6533873709603355e+78   3.7891785456081653e+77   -2.1051043673549599e+79   -6.6788905493975622e+77   1.1691329457390279e+78   9.7838578205588584e+77   -7.0368816707483619e+78   2.0617397581651240e+78   5.8642239398193524e+78   8.0937319950030821e+78   -2.1454391062928599e+79   -1.5813392361289786e+78   -3.3753566629567290e+78   -3.2724632487028591e+78   -1.9049320253036652e+80   -8.3127111021790225e+79   -1.8529533911553870e+80   -1.0962412509466638e+79   -2.7162320404000275e+78   -9.8798178150041101e+78   4.1186345223728957e+78   5.6365287484574992e+78   1.5282573189180142e+78   1.2010429927625111e+78   2.3564731326364311e+78   1.1512663346975619e+78   1.1630298440181074e+78   1.5180912488689572e+78   -2.0121577851779671e+77   -4.7110173838027222e+77   3.2350131247892056e+79   1.4624737545833729e+79   3.2748576738423526e+77   4.0299237831146241e+79   2.5837474485221124e+78   1.6471495738016915e+79   2.9603220057536262e+78   4.0275515860215913e+78   2.0570610376450337e+79   5.5157962241539782e+79   1.6381675072204088e+78   3.1749479040592576e+79   3.1494314054115863e+78   8.2738759348813861e+78   1.6377210337298458e+79   1.4151000348827962e+79   -3.7564848201830732e+78   -2.5462967962947827e+79   1.4217385466495548e+78   2.4381046697996847e+78   -3.7818210846955668e+77   -1.6925382672644824e+79   -8.2288720612510319e+78   -1.5509957362135417e+80   -3.2080526705163925e+79   -3.7298747984486474e+79   -3.5783907347155167e+79   -4.6195946835364135e+78   -9.1671059565535969e+77   -9.3862924555379769e+78   -1.7506610428554161e+78   -3.0402755104004228e+78   3.0125855041882257e+79   7.1301294419183028e+79   6.9525251290164330e+79   3.4828125551755306e+79   -4.5916745334714138e+78   -3.8617831884472129e+78   -7.7755280959018013e+77   -7.0282818138367932e+77   -2.5813375589955321e+79   -1.2078231743595241e+79   1.0366863539836133e+80   5.1550852961236104e+79   6.4955928732317869e+77   2.5147440775986941e+77   7.8223890946904321e+76   1.1980441791886519e+77   1.9313873075501910e+77   1.6255188364131419e+77   -8.7654497668381226e+79   -4.0864279084494140e+79   -5.2863909612739019e+79   -2.5679288026857327e+79   -2.6915019925040622e+77   -3.3590782447718969e+77   -2.2137359004676289e+78   -1.5674032517320819e+78   -8.6889133246352042e+77   -1.0261027937779857e+78   1.3936289152980538e+78   -8.5662700424473598e+77   -2.4922383623197162e+78   -4.2609964601213960e+78   6.6038382491441099e+78   8.7936918021529480e+78   -1.8608918252501239e+77   4.8647865789034953e+76   8.2649252870114147e+77   9.2067865604348584e+77   -8.5332773088672888e+78   -9.1626544879121761e+78   -4.5400750631673082e+77   1.7855844479861211e+77   -1.0416787177743108e+78   -6.3310943786692393e+77   2.3458730759385480e+77   -3.5384275613436115e+77   2.1464384860656953e+79   8.1830167249252796e+78   -2.1180118938809079e+77   -2.7263499741420883e+77   -5.0715275350618780e+78   -5.3764316283322483e+78   -6.0468223591384863e+76   6.1392685976277864e+77   -2.1294320988093919e+78   -9.5782455842130264e+77   9.5318231759361753e+77   6.8422803681434852e+77   3.0756289995660920e+77   6.6438584780073104e+77   3.0863881371213473e+78   -2.2092963181123910e+79   -2.5453396236314631e+77   -6.2470186389768987e+77   8.3101791822277092e+77   4.7368432424259493e+77   -8.4089967116811924e+78   -7.3473344473287950e+78   4.7937564499735934e+79   9.6759984903649685e+79   3.6374184477409598e+77   6.5644039573813513e+76   -3.8587257751169791e+78   -3.0659920453533556e+78   1.0524440882235593e+79   1.8550465485942598e+79   -4.9994145232908538e+79   -3.7369017024899455e+79   -1.8797999255119933e+78   -2.2266170869311324e+78   3.7085948203651961e+77   6.0598344622214403e+77   -1.8304182942629835e+78   -7.6302136667421868e+77   -2.4609846501147075e+78   -2.7140660766124299e+78   -2.5717687012240437e+77   -5.5420700605397942e+77   -1.6934234745692523e+79   -3.7589706058509997e+78   -3.0404476761987722e+77   -3.9875889023287554e+75   4.8165640969027692e+77   2.9769926396681602e+77   -6.5277681963141814e+77   -6.2893238444933646e+77   4.2120908319692886e+78   4.2865675660271541e+78   -6.1455156592005000e+77   -1.4820208927316304e+77   -3.4729194030210982e+78   -2.8345255951646590e+78   8.7012244566053616e+77   1.2961760234072316e+78   -1.8934267527343702e+78   -1.9870005238900453e+78   -1.1898088369567372e+78   -1.3623458421191426e+78   3.4784930195603301e+78   5.1051154787980118e+78   6.8153948525744007e+79   2.9122108223587164e+79   4.7586126584436385e+78   4.4461026068950797e+78   1.1535860037717828e+77   -1.7903222016585978e+76   -6.8990304213655971e+78   -2.6016168273649702e+78   1.1748179478670032e+79   1.1525791118713179e+79   -1.0462005863506857e+78   -1.2617231375405236e+78   2.5840952723231452e+77   2.4807442289472537e+77   -1.5184784062834257e+78   -1.1048817553913993e+78   -5.0015511039494038e+78   -2.2295886748925583e+79   -5.3904384474532001e+78   -6.1323590312469376e+78   -2.8451617141316470e+79   -4.6420042785259364e+78   7.4761279393486114e+77   -4.3812573534807725e+77   -1.3540224012872387e+79   -2.5497999896688763e+79   2.3494588388222987e+78   2.6614944988780965e+78   1.3369954551009409e+78   9.9348215544491425e+77   3.4691012754620706e+78   2.4318283601743578e+78   -9.4253820989739374e+77   -5.8247810358484929e+77   5.8622754566772726e+77   1.4725196332867012e+77   4.0498105398584421e+77   -4.1543081245808473e+77   -2.3612690029548969e+78   -2.8108680552343982e+78   -1.4481355564121806e+78   -1.5144895637344639e+78   -3.4920848351234717e+79   -6.3802762807413457e+78   8.5454981060858391e+78   9.9582999179779076e+78   -2.0334725058639872e+78   -1.8714340211383559e+78   -1.8365917368359552e+78   -2.1158681693560402e+78   3.8784558649958387e+78   4.4047062095237897e+78   3.9715316760481366e+77   3.0962557740058408e+77   2.3413430000367651e+77   -1.5391631114680788e+77   -1.0340243228521374e+78   6.5850165698009401e+77   5.6126195419875051e+79   2.4582508772704406e+79   9.3501120404535733e+76   -7.7143122755022393e+76   -7.3525716969246518e+76   5.5054720130927830e+76   -6.2090667768894299e+78   -5.2063782400860528e+78   3.4215314531508030e+79   6.3146432211004682e+78   5.8600485139836999e+77   7.4527860388457570e+77   -5.7543805417983639e+77   -8.9357458578620980e+77   -6.6628565527955432e+78   -4.2038536371573528e+78   2.7518932854243913e+77   1.0735126584732370e+78   5.5602533397141425e+78   3.7802799009926499e+78   1.2230367905724231e+77   1.1836621015265712e+77   1.0664225130735922e+78   5.5463072858025387e+77   -3.1648244727574748e+77   4.9204635467211400e+77   9.7235341065919482e+77   1.6312609483607484e+78   -8.9719475800312370e+77   -7.2283488061311599e+77   -5.9722130304611391e+79   -2.6456737226349430e+78   -1.4692217608568212e+80   -8.1359298324380464e+79   -6.9057117754496111e+78   -6.2077870021239992e+79   1.4673282762002424e+79   1.1434532684866633e+79   1.3718272757867691e+78   8.7989107440254918e+77   -2.1981880964897238e+78   -3.3396724689031048e+78   -2.7346653352554469e+77   -3.4010891361551518e+77   1.2925988217328751e+77   1.5587228815163817e+77   -4.0053460265695718e+77   8.6311786847263772e+76   3.1525431700308279e+78   1.6643228377209412e+78   2.5684556639984341e+78   2.1664840573048961e+78   1.7073673406007224e+78   1.7794143256723074e+78   1.2530509990733287e+78   1.4954163252934718e+78   -6.0066236963085569e+77   1.3564887343199635e+77   -2.1074222633590547e+78   -1.8332166723506412e+78   -1.4905892329708165e+78   -1.6573765489337803e+78   1.3200434959922145e+78   1.4570534012271169e+78   -1.7944717827590117e+77   -1.9190495615924207e+76   4.5682604412159294e+78   1.0781375036050306e+79   -5.4336637010451830e+78   -1.5028903313966914e+79   -1.6328449086710538e+79   -5.3025519580359714e+78   1.1849177065396439e+79   2.5834733740243221e+78   1.8515776652158697e+78   4.6189696873948919e+79   6.3363981176686595e+78   7.6084261610522899e+78   1.6426492557858742e+77   1.0089391176016139e+77   -1.4919128568804956e+77   -3.5433630616245139e+76   -2.9486404308572606e+77   -3.8395520309207998e+76   -3.7980981073302345e+78   -3.5141303822858078e+78   6.0507141456344646e+77   9.5654404926024700e+76   2.5518298499599695e+77   4.3836900199218504e+77   -1.1992996094371258e+78   -9.8317761573839874e+77   3.1905214865641097e+78   1.4852440085837232e+78   1.3697553143081610e+76   1.4748206869958550e+77   3.7598030388442942e+77   4.3221844013684287e+77   -3.1351088765648379e+78   -3.5199923650580601e+78   3.5721159429678255e+78   3.6693566613850140e+78   -1.4120441248259346e+77   4.7708854602460144e+76   -2.2021959527093461e+79   -8.7739344123410677e+78   4.1664759283104454e+78   4.0820265797394433e+78   5.6680581222436231e+77   9.9269664046140776e+77   2.7088007254036996e+79   1.4006223735408528e+79   -1.1329503795913546e+79   -3.3979562572980121e+79   -1.7398868211714079e+78   -1.5662934650339561e+78   1.6881966973892467e+78   2.0330138513024670e+78   -7.0323216149343472e+78   -8.1020910870713730e+78   -5.9944330980172550e+78   -6.1741961267247264e+78   -3.9368844312744708e+76   -1.6638804877271989e+77   6.9811513592137741e+78   1.4937741979444479e+79   -4.3394019541245403e+77   1.9163631394151266e+77   -1.6691665539287329e+79   -5.3888032529243414e+78   -7.8508005259563736e+76   7.5586855267619336e+77   7.4514460784374972e+78   3.9371860306950676e+78   2.0364328082354382e+78   2.0361755707683730e+78   -1.2377609306564880e+79   -2.4194412639750759e+79   -7.3161747712048840e+78   -7.7560786822354590e+78   -9.8413869854540088e+78   -3.0332960078413599e+78   1.0393064711836978e+79   3.2468235657225997e+79   -3.3076910145331365e+77   -5.4079641700625075e+77   2.4235819393465299e+78   1.0061240609847906e+79   5.0795169404618295e+78   4.5596102858267547e+78   8.0423891060071327e+78   7.6665201159854762e+78   8.9738876553456508e+78   1.0145977721714172e+79   7.7751355934517892e+78   2.3512311610583237e+79   -3.9671279891075364e+78   -1.0067975725365646e+79   -1.7448541353337043e+79   -4.0025292080520111e+79   9.7986396458537509e+78   5.9690821274027880e+78   1.9341558989436329e+79   7.7173006190699045e+78   3.1371925520232456e+80   3.1141993991307026e+80   -2.5799072111344652e+78   -2.6306950831572249e+78   -2.4369815240912521e+78   -2.0276167583498602e+78   1.4663379720913257e+78   1.3888341667086711e+78   4.5516665047827887e+79   1.2450451466967597e+79   -6.0662124325290328e+78   -4.9122121729048611e+78   -5.2339538943165734e+76   -1.3816721130163508e+77   -1.0948940281899458e+78   7.8234417632726406e+76   -1.4628038858726999e+77   -4.5489120842407974e+77   -1.8984797555373649e+79   -7.7101045450247750e+78   1.4736671431395283e+79   1.1115164333690306e+79   -1.0808582517313665e+79   -1.0323888781830257e+79   9.2929593565060092e+77   6.6969967481145474e+77   1.4449986464631133e+78   1.1473834325854207e+78   5.9409635726562187e+76   1.4412854587975349e+77   8.4477393096990575e+77   6.9390644447011462e+77   3.8041265400677196e+78   4.0658951119666893e+78   3.0371265154072471e+78   3.2489508782691731e+78   2.9879156271765772e+78   2.8518256351305264e+78   2.3375359343750381e+78   2.7024960604020856e+78   -4.4656144678588233e+77   -4.2475372064404720e+77   -5.4076658922360820e+77   5.1577534022924115e+76   </DataArray> 
</CellData> 
</Piece>
</UnstructuredGrid>
</VTKFile>