<?xml version="1.0"?>
<VTKFile type="UnstructuredGrid"  version="0.1"  >
<UnstructuredGrid>
<Piece  NumberOfPoints="2534" NumberOfCells="4892">
<Points>
<DataArray  type="Float64"  NumberOfComponents="3"  format="ascii">0 3 0  0 -3 0  6 -3 0  6 3 0  3 -3 0  6 0 0  3 3 0  0 0 0  3 0 0  0 -1.5 0  1.5 -3 0  1.5 3 0  0 1.5 0  6 -1.5 0  4.5 -3 0  6 1.5 0  4.5 3 0  4.25 -1.25 0  1.75 1.25 0  2.25 -1.5 0  4.5 0.75 0  1.541666666666667 -0.2083333333333333 0  3.219827586206896 1.521551724137931 0  1.125 -1.875 0  4.875 1.875 0  0.8702651515151515 0.631628787878788 0  2.25 2.214285714285714 0  3.316176470588236 -1.904411764705882 0  5.214285714285714 -0.75 0  5.03125 -2.03125 0  0.96875 2.03125 0  4.041666666666667 -0.2083333333333333 0  0.8205128205128206 -0.9134615384615387 0  3.942582294752138 2.189194098250713 0  3.061487638533674 -0.968243819266837 0  2.192708333333333 0.4427083333333334 0  4.157850026972511 -2.182329047049442 0  2.331456616463011 -0.5285296485744057 0  3.654761904761905 0.5654761904761902 0  5.25 1.125 0  2.563673341677096 -2.280663329161452 0  5.126674107142857 0.1283482142857142 0  0.75 -3 0  0 -2.25 0  6 2.25 0  5.25 3 0  0.7680051888903191 -0.1384245958639337 0  1.617229471026718 -1.006949429867069 0  4.218940341429579 1.468686552856807 0  3.75 -3 0  2.25 -3 0  0.75 3 0  5.25 -3 0  6 -0.75 0  0 -0.75 0  0 0.75 0  2.25 3 0  6 -2.25 0  0 2.25 0  3.75 3 0  6 0.75 0  1.787573018358365 -2.279142327213878 0  3.195025188237337 2.273430909158844 0  2.528159645294386 1.151699106559287 0  1.041598427383826 1.322848427383826 0  1.520951704545454 0.4634232954545453 0  1.580357142857143 2.325892857142857 0  4.919642857142857 -1.361607142857143 0  4.54981623521892 -0.6483700862895494 0  2.99317863826574 0.6697091957925523 0  3.450169349029507 -0.4574865881858001 0  3.605016126014028 -1.323102984840902 0  2.745144658907412 1.882241931337371 0  0.4898065586600511 1.092777516238393 0  0.5 -1.875 0  1.217028489597945 -2.469323836800685 0  1.659912685567181 -1.604738056701542 0  5.4375 1.6875 0  5.34375 2.34375 0  4.52741779500503 2.384139265001677 0  3.375 -2.514804579549941 0  0.5446428571428571 -2.455357142857143 0  2.766554087216865 -1.745795909102064 0  4.525516559010988 0.1490283123570637 0  3.87554132162248 -0.8280516069565407 0  4.53622906132958 -1.76963146596888 0  0.4243951612903226 1.875 0  0.554851858345021 2.446861709948876 0  5.575604838709677 -1.875 0  5.445148141654979 -2.446861709948876 0  4.875 -2.575604838709677 0  1.440573466105381 1.721823466105381 0  2.193519495405082 1.631799415080963 0  5.472630128027442 -1.330813078900983 0  4.750126894286386 1.343813447143193 0  5.607142857142857 -0.375 0  2.625 2.607142857142857 0  0.3921763197810531 0.375 0  5.60901753622775 0.3750000000000001 0  1.125 2.613454943235572 0  3.701856738980915 1.163867513386733 0  3.736112850688509 1.696746876851408 0  3.519183195491339 0.06065128742606851 0  3.973620778217027 -1.693401606145563 0  0.8125 -1.444978632478633 0  1.256657745408029 -0.6381828923025001 0  0 -1.125 0  5.019997778514942 0.6475044429701156 0  4.125 3 0  1.285569332703024 0.8955310332120207 0  0 -0.375 0  0.4638922275641027 -0.5625 0  2.056635259780241 -0.07226025978024064 0  2.130475508371123 -1.000827820434028 0  2.677484372338113 -1.267299126394495 0  2.848680878891876 -0.4956836878192376 0  4.937901885089369 -0.3340245904575954 0  4.393563081308854 1.919544166973803 0  4.053859126323572 0.2813938488760716 0  1.181051704329518 0.1167440895674965 0  1.971354166666667 2.607142857142857 0  4.875 3 0  2.519350561152006 0.08093582719875507 0  3.139443301924015 -1.442524927271905 0  6 2.625 0  1.849169256239503 1.945480934753207 0  1.867196483071171 0.7892354369530077 0  1.192506522009051 -1.184888428863342 0  3.375 3 0  3.603234392481833 2.536866305538572 0  3.846752908916648 -2.537707634073423 0  2.014339897513945 -1.886932065281681 0  4.038392037966526 0.8363324773944992 0  4.421242701722609 -2.552534687860327 0  3.715389848650903 -2.108856956172843 0  2.985668138820625 1.127780908772207 0  0.4500794934449803 -1.173696061598557 0  3.366760888116476 0.8891914618875614 0  1.869163043700093 -0.6107175804171328 0  2.175114838273305 -2.53928723780967 0  3.014417665538299 -2.241523065744933 0  2.625 -3 0  2.819968145332426 -2.617202329573456 0  5.625 1.3125 0  5.563263538826679 0.814027077653358 0  5.625 3 0  2.550041671270923 0.7074928970804664 0  4.014583091741168 2.59891853892166 0  0.6440729668673318 1.499523832583132 0  5.219449799568244 -1.660557808485412 0  3.474012636702472 -0.9300738420779746 0  0.8125 -2.142857142857143 0  1.875 -3 0  4.945010515846405 2.554471797033147 0  2.611388969012422 -0.8478354915063726 0  3.223746055611014 0.3371683159691745 0  4.843939757110898 -0.9483610977948225 0  4.66556954816842 -2.220888354477256 0  4.125 -3 0  4.448108395110625 -0.2524000502731018 0  5.63671875 2.05078125 0  2.822484133964224 1.491327727709286 0  3.378213092764193 1.903125093887009 0  5.607142857142858 -0.9231200445788541 0  2.12639693023183 1.100450516019641 0  5.625 -3 0  0.375 3 0  0 2.625 0  6 -2.625 0  0.3931307155906299 -0.01856779822591927 0  0.8549199714190221 -0.5218333744252657 0  0.7651723094668359 0.253768144801553 0  1.421989550604507 -2.133299471886336 0  1.582611957351803 -2.615166692128227 0  4.420331038793115 1.133144382396504 0  0.375 -3 0  0 -2.625 0  5.078156723571596 1.54697017071479 0  1.877250715260938 -1.288801575378032 0  2.409169073010687 -1.916147168931784 0  1.146151077069952 -0.268000681695328 0  1.726784828652036 0.1335728643263411 0  2.745628549924675 0.3838821021397905 0  3.011490900297165 2.613625569196862 0  5.62463365164608 -4.137655439684362e-05 0  1.875 3 0  1.125 3 0  6 0.375 0  2.625 3 0  6 -1.125 0  6 -0.375 0  4.875 -3 0  6 -1.875 0  3.375 -3 0  1.125 -3 0  0 -1.875 0  0 0.375 0  0 1.125 0  0 1.875 0  6 1.125 0  6 1.875 0  4.813017731148975 0.9677363687196439 0  2.807371623148303 2.264962208227767 0  0.3692953377255688 0.7436406761680247 0  5.615625 2.615625 0  0.9395725521479794 0.9812935874921043 0  1.390920759130215 1.238984550166515 0  0.9588795022085095 1.672288500195331 0  0.87712392565124 -2.641031728267331 0  0.3665732993114588 -1.532068934251388 0  1.841944504733106 1.591700334213738 0  4.832970185136452 0.3385359233091246 0  4.169083540479082 -0.5746148619765254 0  5.281697083409333 -0.2046640461936881 0  4.072845380968044 1.784516523483641 0  1.293029195762321 -1.543079049035419 0  4.878733886054284 -1.720697370582964 0  3.609167475697567 -1.687579152754035 0  4.836981942878573 2.222259978217028 0  4.204938267037067 -0.9128589669335569 0  5.183079748175263 -1.111742407358677 0  1.469404041858679 2.654509729682302 0  1.22880920402559 2.273525645756405 0  4.566761045622856 -1.414165869120005 0  4.531680518427715 1.606803989975667 0  1.918929241273175 2.27471131819245 0  3.590183783343969 2.184680610175416 0  1.85683899811842 0.4533569963423589 0  1.173935704088662 0.4636872214645547 0  2.116602160898525 -2.207718541460878 0  4.51821874648995 -1.042568353750147 0  2.721551512787618 -0.1859357475290837 0  5.294921875 2.001953125 0  5.288671874999999 2.670703125 0  2.199940744527116 0.7756512213396931 0  4.090519467638897 1.163401080812838 0  2.298177083333333 2.670581371753247 0  2.484362362207526 -2.687319997637033 0  3.300530569898859 1.207053005217563 0  3.936078051808127 -1.362164062673065 0  5.341218841330105 0.5689885832563615 0  4.226314635599414 0.5638853401248238 0  2.524510956818563 1.635483567726497 0  0.3219546452225031 1.389066019009203 0  3.139061555368706 -0.3133905221155423 0  3.145569907612562 -0.6461828528638952 0  3.701427442033566 -0.2272880199383185 0  1.686782510365738 -1.934662341426927 0  2.427696494631844 1.944064773844184 0  3.901817839425732 1.422433381251312 0  2.356489883772755 -0.2025512972825912 0  4.820757576351118 -0.01647699434507374 0  3.064415631228375 1.809719380809516 0  4.643002705009462 2.69782572459795 0  4.31624250429496 2.728112685900672 0  1.520100694408069 -1.314302747998057 0  3.754559308601717 -0.5375020107416889 0  0.25 -2.0625 0  0.8125 -1.826636904761905 0  4.861738621091127 -0.6367294570749906 0  1.545149590740081 2.015832101819233 0  3.857113324620078 0.04127675193819436 0  0.3162874907704933 -0.864918315983958 0  4.21293081604216 2.352874368135467 0  3.123697687162562 -2.708090473740421 0  3.415275466010259 -2.202892416689829 0  3.601103065320932 -2.727566580522146 0  1.558629964945672 -0.5289921609136927 0  3.324859026263307 -1.198136798699183 0  2.424350759683917 -1.092246517929194 0  2.789248065239812 0.8954629970670158 0  0.8882026075771248 2.364936378889839 0  0.8066140242673685 2.679750706449505 0  4.504454978490482 0.4491616076730165 0  4.26881784709759 -0.009649566552704852 0  1.313479173834523 -2.758675889510418 0  1.120577805361368 -2.179971784090952 0  3.734048623985226 0.8602850349907256 0  3.527828882622877 1.432983527791925 0  1.959527908877504 -1.578124930685265 0  0.7602573574724077 1.220872343399509 0  0.6691217533356228 0.8531987603309893 0  1.877213035764122 -2.564340152892596 0  3.304349402914068 2.552016594979913 0  4.285565286275464 -1.569057178671076 0  4.227521511146333 -1.876903861267543 0  5.34375 1.40625 0  5.71875 1.59375 0  1.56245959534423 0.766197796710638 0  0.2458241530773257 2.4375 0  0.2794123857609179 2.138568368155198 0  5.754175846922674 -2.4375 0  5.720587614239082 -2.138568368155198 0  0.6472458227887359 2.124973059628837 0  5.124241021325378 -2.352544055105642 0  5.189172233440652 -2.675873509996353 0  5.364643151640443 -2.12768524739804 0  2.298896485720138 1.348573610321417 0  0.6008689899200503 -2.745193425346304 0  0.307092513690391 -2.651812055231556 0  0.2683745826107009 -2.363146293324415 0  0.5223214285714285 -2.165178571428571 0  0.5169611136983336 2.740349995819724 0  5.607469108596883 -2.699891746740618 0  2.138439274270545 1.947386893596098 0  1.25507379660067 1.953406658386351 0  4.135759889512124 -2.476847355718572 0  2.548249345531056 -1.538893887888457 0  2.771010284190282 -2.05339728351
[...]
<CellData  Scalars="f_26-2"> 
<DataArray  type="Float64"  Name="f_26-2"  format="ascii">-3.4653273369878468e+16   -4.2891283267766312e+16   -6.3898653014483000e+16   -5.5341215831318144e+16   -6.1068994765011632e+16   -1.1243201709557531e+17   -3.9925060443066960e+16   -5.1608859248118350e+15   -4.3943990665957215e+15   -3.4571744675691180e+16   -3.0177598822521712e+16   -5.8023448128018640e+16   -2.1536123051212964e+16   -7.1125774253651200e+16   -6.1282716230409010e+15   -4.4889979497856328e+16   -5.9443891405314216e+16   -1.4209089665761935e+15   -4.4251179103230632e+16   -2.5485654789256140e+16   -7.7390908174893232e+16   -1.7843059919515826e+16   -4.8319397844702112e+16   -2.5236567387924684e+16   -3.4843646646063484e+16   -4.4618127496625328e+16   -8.0898451675300624e+16   -2.7958801883325804e+16   -2.7854366381279964e+16   -4.1727872770916856e+16   -2.0338966596155148e+16   -2.0846853026113320e+16   -3.5779997337427540e+16   -3.2744782522817124e+16   -3.7063249937136888e+16   -4.1448558550706880e+16   -5.0861546404687768e+16   9.9245580522182780e+15   -6.4208916490219416e+16   -4.4055173716252096e+16   -1.7100315229392742e+16   -3.9458464051271936e+16   -2.7813712134279912e+16   1.3304433771666872e+16   -1.4503366308253350e+17   -6.5476654018968800e+16   -8.3550282976700176e+16   -2.2522892789036272e+16   -5.2477521721280280e+16   7.5884648109966300e+14   -5.7023112359135632e+16   -4.0008642514524144e+16   -2.1408157628742276e+16   -4.7251571360364800e+16   -3.8137036070381352e+16   -3.9714879499222664e+16   -6.2417088763915632e+16   -4.7453103020940840e+16   -6.2620496432365610e+15   -6.1178582720900032e+16   -2.6139623610396404e+16   -4.0867722266527104e+16   -6.1897736056286440e+16   -3.6928296789226496e+16   -1.1952399396448524e+16   -4.4559716940216344e+16   -6.5045881613354336e+16   -8.7189712280784890e+15   -1.7585625890254020e+16   -4.6876975023255784e+16   -2.4516143791926312e+16   -2.0568324218882268e+15   -1.1368053771618236e+16   -3.7321494937291400e+16   -3.1291146653343848e+16   -4.6536498890872410e+15   -2.0517228479971684e+16   -3.9160039301195168e+16   -7.1763522017595648e+16   -1.1380009579493194e+16   -2.2838696857551992e+16   -3.3418312480686964e+16   -4.7255093186446808e+16   -7.5649548064132400e+16   -2.7857336123043692e+16   -4.3813553616895696e+16   -1.4444486469923332e+16   -3.6217899040720848e+16   -3.5690674774817776e+16   -3.8849954028916744e+16   -4.5155526606105576e+16   -4.1896527903296392e+16   -7.7462734170655520e+16   -9.3552835376607160e+15   7.7424832237397530e+15   -7.4266315083994448e+16   -3.3832102628733195e+15   -3.0201566733019396e+16   -3.2348181775377164e+16   -2.2170916736692760e+16   -2.2325113731755772e+16   -7.9847636961155920e+15   -2.3964572813182620e+16   -1.8726176923589820e+16   -4.0417736217634168e+16   -6.9365721318453928e+16   -5.7472552240924928e+16   -2.9773175274212060e+16   -6.0066610431001460e+15   -2.6262573459862188e+16   -2.8011692340686456e+16   -1.8256156955181964e+16   -2.0121506112436312e+16   -3.0816344800324804e+16   -3.5820848313362956e+16   -6.4729438609628272e+16   -9.6462123262596048e+16   -1.8230201286831992e+16   -2.1383096142564624e+16   -8.9330576292574976e+16   -5.6124209811562150e+15   -5.0047365721273232e+16   -4.8433653754858040e+16   -1.4782983083795438e+16   -4.0102601455157384e+16   -2.0584546073631400e+16   -1.1973200050324048e+17   -3.6821345529828336e+16   -8.6868049542197680e+16   -1.9780682284200176e+16   -3.0531485245965040e+16   -4.0810291891820424e+16   -3.9430074165517160e+16   -1.1706640365614198e+16   -3.3279264790834100e+15   -1.9285536611039580e+16   -4.4961336537312816e+16   -9.5077574202150800e+16   -1.2753622744181776e+16   -5.3063407000859528e+16   -2.7140571851119568e+16   -2.5170722457250000e+16   -6.7405783972435352e+16   -7.1176230837000616e+16   -8.5553217630861630e+15   -2.0693768683096675e+17   -4.7867304327497960e+15   -5.4539021354582840e+16   -3.4871428163906056e+16   -1.1617047005961508e+16   -2.5792085716590016e+16   -3.2231980764810648e+16   -3.5426242530860628e+16   -4.7281457711499368e+16   -4.1438487292278624e+16   -2.7470780976534492e+16   -4.5219884064566312e+16   4.5977058802753190e+15   -7.8469952978625472e+16   -1.7143562690308936e+16   -7.2740034260509712e+16   -3.0966524326484648e+16   -3.8559394735957872e+16   -6.9488077569950768e+16   -1.9121065018484052e+16   -7.0065472933013328e+16   -3.3779090071967564e+16   -5.8241942681957968e+16   -3.2356681776982592e+16   -3.1301719793532868e+16   -8.8790434202322570e+15   -1.3554608930582682e+16   -4.1754436502213352e+16   -1.1599549668143628e+16   -2.8363021812969916e+16   -9.8008740004015760e+16   -3.5403887952493856e+16   -2.6021839392516736e+16   -4.5535066721857336e+16   -1.5977879131352556e+16   -2.1034946183241468e+16   -5.9519784911421390e+15   -1.5627586774430032e+16   -2.5483280962276480e+16   -9.2278497295512528e+16   -8.2442585707754928e+16   -5.0309981448289032e+16   -4.4297376053930888e+16   3.4621794514941940e+15   -2.6081342874903032e+16   -1.1835028497354162e+16   -4.6100318250708704e+16   -8.2607160390877950e+15   -3.6823192095336400e+16   -7.1353111153725450e+15   -6.7338987883381616e+16   -5.5358467429933664e+16   -4.6616199649317552e+16   -1.5708366148775570e+16   -2.0450014381509128e+16   -3.9627545246894065e+15   -4.4135748418182056e+16   -5.2733423967870000e+16   -3.7503487737265720e+16   -5.2030269801750080e+16   -2.9215564827750628e+16   -1.1724692511822692e+16   -7.7869390774047744e+16   -3.3526517183276184e+16   -4.9315702322291520e+16   4.9885786262241170e+15   -2.0070346005160804e+16   -4.3471504792007320e+16   -6.4437528276774670e+15   -8.4350751207803072e+16   -4.5528719805039544e+16   -6.5683296366619656e+16   -2.5871602873480216e+16   -2.0631600517273220e+16   -9.0323347992282464e+16   -1.6352591293502406e+16   -4.9322832362436968e+16   -8.1617601061740400e+16   -3.7578395526147976e+16   -4.9762369204381000e+16   -4.9640722985799200e+16   -6.9434307602459350e+15   -1.8392746666262832e+16   1.0919827321274556e+16   -2.7625626408330848e+16   7.6234485816370588e+14   -7.5870478968059320e+15   -2.0431073115612112e+16   -2.5015716910060784e+16   -6.2393182300501192e+16   -5.9972042743710016e+16   -4.2355682254228512e+16   -2.3692556156647928e+16   -1.5640287185874934e+16   -1.5452533367629160e+16   -8.1182942729820030e+15   -3.7345001110824504e+16   -5.5605847643768312e+16   -1.8331880654581208e+16   -6.9553043474827192e+16   -2.5127828994307144e+16   -7.1492268195646992e+16   -2.3222772854145172e+16   -1.2919903768503340e+16   5.6201961115730300e+15   -1.1871398409457798e+16   -1.3003683397570326e+16   -4.7419110842953672e+16   -3.3044879833993820e+16   -2.0716656182107564e+16   -1.5217610928891022e+16   -1.9161713918606380e+16   -2.5755281065772384e+16   8.6161607657780050e+15   -2.8411649979706460e+16   -1.6516201242746090e+16   -7.3933873579947168e+16   -2.5546772867906000e+16   -3.7861758030318192e+16   -2.9561013837311388e+16   -4.4372832340410744e+16   -1.6504660645629706e+16   -2.7543560641284044e+16   -5.9860975747889560e+16   -2.5851221900680440e+15   -3.6440282579070520e+16   -5.6456614679162232e+16   -6.8109407633245688e+16   -5.8030370350990096e+16   -2.8962428122384185e+15   -1.1654498159798834e+16   -5.7239244736902040e+15   -4.6691914990981936e+16   -2.7016850828153700e+16   -1.2568475927000152e+16   -3.4732660748536196e+16   -6.6443393366460120e+15   -4.9974454545849616e+16   -2.6578483537805136e+16   -1.4680809573158430e+16   -1.1181848421503648e+16   -3.9167168404247888e+16   -3.9077273143633304e+16   -3.0930533864722548e+16   3.3202559781056685e+15   -4.3784527543378048e+16   -4.8023674676339312e+16   4.5635165017384981e+14   -1.5759480803706812e+16   -1.9816847656494976e+16   -3.5494102525502784e+16   -3.5095250118332236e+16   -7.9327583178462320e+15   -4.0950175886518600e+16   -1.1036451674458880e+17   -5.7046030111139288e+16   -3.2599400897739784e+16   -3.7207484965310064e+16   -2.3521076008550136e+16   -1.2203828707070788e+16   -1.6931180356274844e+16   -6.9835678648138848e+16   -7.2638889884470770e+15   -2.7622172266812196e+16   -1.8412320527466452e+16   -2.3210586822707960e+16   -2.8359531627508124e+16   -5.5570465644604888e+16   -2.7201356711650456e+16   -3.4919474563567664e+16   -2.4956549621222656e+16   -3.1708777693570824e+16   -3.8874656966683512e+16   -2.4570202234023300e+16   -5.8723202025635176e+16   -6.2518265954996288e+16   -1.8955885743584932e+16   -3.2351666476153456e+16   -5.4077976550632040e+16   -2.2625512732642320e+16   -3.1544817847625020e+16   -3.3399821858980404e+16   -4.9942947490611304e+16   -4.6487359719152984e+16   3.3987716025032760e+15   -4.6374948203132344e+16   -3.1664931104870220e+16   -4.5770920410376992e+16   -5.4443488424370872e+16   -3.2702891955382424e+16   -5.0838500197036320e+16   -1.5988506236971820e+16   -1.3584437674513592e+16   -2.8530185667671016e+16   -4.1501340806970256e+16   -1.1219417725511272e+16   -2.2040643755719832e+16   -1.9757138593592700e+16   -1.7886395682355692e+16   -1.5337870011526870e+16   -4.3320766385360192e+16   -2.0663184319838416e+16   -1.2468650031016506e+16   -4.0397207507242992e+16   -2.1158146082202172e+16   -2.1063586875554772e+16   -2.3647828728933844e+16   2.1493461008931092e+16   -5.5331423930927640e+16   -6.2616657119449168e+16   -1.6864803961940062e+16   -2.6114913551640180e+16   -1.6357096664647352e+16   -1.0019243039608410e+16   -2.3828646819954276e+16   -1.5879252958715234e+16   -7.8208571048087808e+16   4.9490570390943056e+14   -3.4024941943381800e+16   -1.4746591254436314e+16   -3.5312201383273352e+16   -6.3044374055498104e+16   -7.4584917427338400e+16   -3.3587291275859972e+16   -7.3048341654546432e+16   -2.0858473430743968e+16   -5.5908765968227120e+16   -1.5345556715342524e+16   -3.0365826477765192e+16   -1.8140599607967344e+16   -2.5090150380657940e+16   -3.9844765485414976e+16   -2.0574238522019948e+16   -5.6725645289616472e+16   -2.7362381272437924e+16   -1.3421939528463880e+16   -1.0724551468262574e+16   -2.9929541614924616e+16   -9.1910772761541100e+15   -3.2023784731372840e+16   1.1483982008770926e+16   -3.8884043770225856e+16   -2.8736274441775948e+16   1.2307526512869904e+16   -3.9535052829594904e+16   -1.5945770378841822e+16   -2.6586247710708884e+16   -2.9286284130045320e+16   -4.7012364213139144e+16   -3.0125772895602772e+16   -2.2389894149904436e+16   8.8427150660117260e+15   -8.2133277715618000e+16   -4.0645926219483928e+16   -3.6424565764573648e+16   -3.8346823608083448e+16   -1.7682705561724448e+16   -7.1164097171612010e+15   -2.1826847999275428e+16   -3.4280748985123844e+16   -8.1627940619118192e+16   -3.6094003520557784e+16   -1.2754084200926518e+17   -3.3666096117985768e+16   -6.1424020217757840e+16   5.8251363697661890e+15   -3.2481232271406948e+16   -3.2173567369343800e+16   -6.2464119432438510e+15   -1.3695433764014766e+16   -4.6152360007878560e+16   -6.0546310374617392e+16   -8.5662878692559340e+15   -1.2336804584869270e+16   -2.0564159433054828e+16   -2.8047323620229948e+16   -5.0575697223460056e+16   -2.3861071302396980e+16   -7.8289111921923632e+16   -1.5977468646811830e+16   -1.9292506155967460e+16   -2.9449209705717608e+16   -8.1105364724920100e+15   7.5607349869067420e+15   -3.6814426102495384e+16   -2.8756121256181608e+16   -3.5197237958113872e+16   -1.9999525463492232e+16   -2.5725620557194852e+16   -2.4164190162499620e+15   -5.5323618283466336e+16   -3.5696071212816095e+15   -1.0951064867634292e+16   -2.3512919692112296e+16   1.3723841686764845e+14   -5.4038362879060664e+16   -4.7074534997539840e+16   -1.9706099446995264e+16   -5.7430279392055744e+16   -6.2937038817873544e+16   -4.2119204061224544e+16   -1.3660708199818570e+16   -3.4356023055721088e+16   -2.8719141725121180e+16   -3.6129586020822600e+16   -1.5710635220928220e+16   -6.5240528683260288e+16   -5.7276922481964416e+16   -4.3182694703538008e+16   -3.7015869766774072e+16   -2.2538922907285770e+15   -5.9301548181443480e+16   -3.3022122643686404e+16   -4.0595580290695824e+16   -3.2917302192680724e+16   -6.5753179898709264e+16   -1.8503287726750928e+16   -2.0050764704620896e+16   -6.6645143476683250e+15   5.8990025073639750e+15   -5.8233104138522432e+16   -3.5771129898199948e+16   -6.0205696199781216e+16   -1.1969642134827779e+17   -4.7269423189079576e+16   -2.9724419060584444e+16   -2.0088576444459872e+16   -9.3410593964978320e+15   -3.3549028421827720e+16   -6.1940091197951176e+16   -2.0459959898852140e+16   -4.2046129233224552e+16   -2.8291864696546092e+16   -3.3182921481380616e+16   -1.8633211382862620e+16   -7.0169527975498224e+16   -4.1011477451982184e+16   -4.1214417356443960e+16   -2.5567942214470528e+16   -3.6414962240938832e+16   -1.0478193344719722e+17   -4.2152087818832392e+16   -3.7835024033306352e+16   -2.6091486488194332e+16   -2.4712961837808720e+16   -2.7612671518461524e+16   -1.2424962302282540e+16   -1.9375998423309672e+16   -8.0663312781152990e+15   -1.3943557837049658e+16   -2.6013511706659072e+16   -5.6360504256238344e+16   4.3814930412125295e+15   4.4722870377848680e+16   -3.1513092830014084e+16   -5.8992447350400810e+15   -3.1442013226849064e+16   -2.5094749042615520e+16   -1.7532370793404616e+16   -4.5575127564549680e+16   -4.2080812313456736e+16   -7.4317591710397232e+16   -1.0740103068752012e+16   -2.3930679436941404e+16   -2.6099642407954040e+16   -9.8979888373666512e+14   6.5968099038006060e+15   -5.7403693318403184e+16   -5.3501187061211320e+15   -1.8213911489566676e+16   -5.5735785402438616e+16   -6.4569217130143136e+16   -5.3573735599977112e+16   -1.9332389842160268e+15   -8.9302673275845808e+16   -2.9656498720919044e+16   -7.2880958391793584e+16   -1.9433923658341338e+15   -9.0897217470043100e+15   -2.3648014259347556e+16   -2.3264642944369896e+16   -5.4499944640086960e+16   -3.1683004543591772e+16   -1.4135630798818206e+16   -1.7836859861350934e+16   -4.2899941628085704e+16   -9.4191407600230840e+15   -1.1260188841500602e+16   7.7879594740903594e+13   8.0876553484882760e+15   -4.3052912204228965e+15   -2.6077903799436632e+16   -4.5888817332999400e+16   -9.0866550829481520e+16   -1.8858946024722312e+16   -1.3025519747021326e+16   -1.1827592758579686e+16   -6.7582510472163360e+16   -4.1552245876929088e+16   2.3302468195722064e+16   -3.4541846020709880e+16   -1.4457703008531294e+16   -4.0383317440718360e+16   -4.4198621408583832e+16   -4.0006089630088456e+16   -3.9948937133796608e+16   -3.2532704900758816e+16   -5.3223806943793344e+16   -2.7674627093129988e+16   -3.4066194230284536e+16   6.9454346974093520e+15   -3.2144973845512152e+16   -2.8348485203826044e+16   -4.1033375595679088e+16   -6.4494169163069504e+16   -2.3101438892158764e+16   -1.9587355842504320e+16   -4.3097751082254320e+16   -2.2126522196459216e+16   -5.4712283580722032e+16   -3.0832733082987856e+16   -4.4873005580974232e+16   -3.2250350793750325e+14   -1.7382881620961128e+16   -2.4015753873835636e+16   -1.9279399702758764e+16   -1.7730669276387520e+16   -2.3612554327648900e+16   -2.8500770605669320e+16   -2.7398315248104340e+16   -4.4070822095243808e+16   -6.7079595629998240e+16   -2.2906089184542095e+15   -4.2039125777747760e+16   -1.8590389049708220e+16   -2.9951692582265932e+16   -3.9208553657339904e+16   -6.9918171398763888e+16   -1.8886841162483120e+16   -6.0623854599933808e+16   -2.0692045624851936e+16   -2.8697657044852748e+16   -8.5850203637002580e+15   1.6714473424872535e+13   -2.6182792463238636e+16   -2.8964636110353736e+16   -5.2877436106225040e+16   -5.7613592520429200e+15   -6.8678708648442540e+15   -1.2972257154148756e+16   -3.1397669282038420e+16   -4.8234323042573896e+16   -9.6453983646605408e+16   -8.2114544981843630e+15   -1.0628505124514052e+16   -3.3002947033834572e+16   -2.2570921079653456e+16   -5.9224919170870792e+16   -2.3305303943560004e+16   -3.9011958522294584e+16   -1.0187945557232444e+16   -7.3197340334065296e+16   -4.2384420062945360e+16   -3.4387210933330744e+16   -4.7430524355519992e+16   -5.1880864006172384e+16   -4.2321468404048504e+16   -1.7140686216953360e+16   -2.3390323305016912e+16   -2.2036337731397788e+16   -2.6800679184024736e+16   -2.9533213056028796e+16   -1.3678684064626912e+16   -2.3631502412001580e+16   -3.3460581974499392e+16   -3.5750983600062576e+16   -4.7524431861525060e+15   -3.8410683828309200e+16   -2.9269422657115972e+16   -5.2430159192102320e+16   -2.0387852258195759e+14   -1.4375865052168576e+16   -3.7204104893026568e+16   -7.3016995048852440e+15   -1.8990714920324240e+16   -4.1281635786697125e+15   -1.7152408052976488e+16   -2.1513355674246796e+16   -4.1901177872691190e+15   -1.0224626660714328e+16   -5.8857890456170960e+16   -2.9306094137142124e+16   -2.1478510205399664e+16   -2.6493947778180812e+16   -2.9275319509730976e+16   -3.7098117352287136e+16   -1.7610429014836934e+16   5.2050258080445225e+14   2.1103264768088335e+15   -1.9116731143418972e+16   -2.9652131180332480e+15   -1.5811159482555394e+16   1.4367607790494812e+15   -3.2228855526916700e+16   -2.8109908384711724e+16   -2.9894216974035806e+14   -1.8266276990866072e+16   -2.5314525442714636e+16   -1.3857975005740642e+16   -2.6867900222841492e+16   -4.5463251632542032e+16   -5.5785050460247280e+16   -1.8173299151955856e+16   -6.2472654217928432e+16   -3.6039294760468240e+16   -2.1717085188089800e+16   -5.4910881002295128e+16   -3.7946296371676840e+16   -4.4108936743404605e+15   -9.0027173143986488e+14   -2.0113351255016952e+16   -4.7114115983563080e+16   -2.8178508905435356e+16   -1.9163376610213684e+16   -2.5701143354839130e+15   -1.3111872254994910e+16   -2.9861271155185356e+16   -1.3215134298264148e+16   -3.0080767927790370e+15   9.8935214578543720e+15   -1.7742443430760484e+16   -2.8383474798579712e+16   -7.2021111752300700e+15   -5.2507909726853370e+15   -4.2284182310744152e+16   2.6850524540031240e+15   -2.9788662951910076e+16   -3.3459462950721150e+15   -3.3462922495435284e+16   -2.5493448629671412e+16   -2.2004847772286920e+16   -2.3672037888590188e+16   -4.7218006398528260e+15   -2.4031015424286592e+16   -7.5381813922894760e+15   2.0094189101863522e+14   3.5228221109786485e+15   7.2425729085974590e+15   -3.7415289929922744e+16   -2.0128321444329284e+16   -2.5610164928009460e+16   -6.8717729365122500e+15   1.4808698119824546e+16   -1.8501993515323404e+16   -6.5965301991277712e+16   -2.4238789368663288e+16   -2.8691535627464904e+16   -2.6974355781618900e+16   1.2437005088774260e+15   -5.5990299719188730e+15   8.4490496255797790e+15   -2.0539030657930332e+16   -1.9787793853325896e+16   -4.0516736243720328e+16   -4.2260054283734720e+16   -3.7169730702317520e+16   -5.1434424977591264e+16   -3.1997271634248632e+16   -3.5962358824597392e+16   -4.2680281313456432e+16   -5.9872113032449880e+16   -3.9464259531118608e+16   -1.9856532801620864e+16   -3.6106268767184720e+16   -4.8474886791573496e+16   -9.8702390302033040e+15   -3.0086862748561192e+16   -2.4286662221601148e+16   -3.4939071090750432e+16   -1.7642756740446728e+16   -6.4727049605483188e+14   -3.8203181334607800e+16   -7.8365897122099280e+16   -2.9509923958336196e+16   -9.5489154536482200e+15   -3.2477479144735516e+16   -7.9234393134775391e+13   -1.1443489732575084e+16   -6.0043079731138260e+15   5.4931477532508150e+15   -1.0517056958668868e+16   -4.2854773959693335e+15   -3.2660964623375376e+16   -3.6571024135429952e+16   -4.0536176137316840e+15   -2.1461336701696580e+16   -3.9142128339035040e+16   1.0851778567876270e+16   2.9510233205703972e+16   -4.1773062418742104e+16   2.5983912118647648e+16   -3.6333779864322480e+16   -4.5133659474930840e+16   -9.3818972018657540e+15   3.2255523941358990e+15   -5.4051166138043648e+16   -1.8902329093422904e+16   8.3936294953798250e+14   -3.7152373898806912e+16   -2.5251024537954768e+16   -4.0567598452455465e+15   -5.1992956496216832e+16   -2.7486379802849240e+16   -5.9076965122949440e+15   -1.6448628523913844e+16   -1.0533261316402192e+16   -2.2961677358546440e+16   -2.6468875850750272e+16   -1.7270561302414666e+16   -4.4867880645962104e+16   -9.1898631539411940e+15   -2.9862036983934065e+15   -4.000570673366664