<?xml version="1.0"?>
<VTKFile type="UnstructuredGrid"  version="0.1"  >
<UnstructuredGrid>
<Piece  NumberOfPoints="387" NumberOfCells="708">
<Points>
<DataArray  type="Float64"  NumberOfComponents="3"  format="ascii">0 3 0  0 -3 0  6 -3 0  6 3 0  3 -3 0  6 0 0  3 3 0  0 0 0  3 0 0  0 -1.5 0  1.5 -3 0  1.5 3 0  0 1.5 0  6 -1.5 0  4.5 -3 0  6 1.5 0  4.5 3 0  4.25 -1.25 0  1.75 1.25 0  2.25 -1.5 0  4.5 0.75 0  1.541666666666667 -0.2083333333333333 0  3.219827586206896 1.521551724137931 0  1.125 -1.875 0  4.875 1.875 0  0.8702651515151515 0.631628787878788 0  2.25 2.214285714285714 0  3.316176470588236 -1.904411764705882 0  5.214285714285714 -0.75 0  5.03125 -2.03125 0  0.96875 2.03125 0  4.041666666666667 -0.2083333333333333 0  0.8205128205128206 -0.9134615384615387 0  3.942582294752138 2.189194098250713 0  3.061487638533674 -0.968243819266837 0  2.192708333333333 0.4427083333333334 0  4.157850026972511 -2.182329047049442 0  2.331456616463011 -0.5285296485744057 0  3.654761904761905 0.5654761904761902 0  5.25 1.125 0  2.563673341677096 -2.280663329161452 0  5.126674107142857 0.1283482142857142 0  0.75 -3 0  0 -2.25 0  6 2.25 0  5.25 3 0  0.7680051888903191 -0.1384245958639337 0  1.617229471026718 -1.006949429867069 0  4.218940341429579 1.468686552856807 0  3.75 -3 0  2.25 -3 0  0.75 3 0  5.25 -3 0  6 -0.75 0  0 -0.75 0  0 0.75 0  2.25 3 0  6 -2.25 0  0 2.25 0  3.75 3 0  6 0.75 0  1.787573018358365 -2.279142327213878 0  3.195025188237337 2.273430909158844 0  2.528159645294386 1.151699106559287 0  1.041598427383826 1.322848427383826 0  1.520951704545454 0.4634232954545453 0  1.580357142857143 2.325892857142857 0  4.919642857142857 -1.361607142857143 0  4.54981623521892 -0.6483700862895494 0  2.99317863826574 0.6697091957925523 0  3.450169349029507 -0.4574865881858001 0  3.605016126014028 -1.323102984840902 0  2.745144658907412 1.882241931337371 0  0.4898065586600511 1.092777516238393 0  0.5 -1.875 0  1.217028489597945 -2.469323836800685 0  1.659912685567181 -1.604738056701542 0  5.4375 1.6875 0  5.34375 2.34375 0  4.52741779500503 2.384139265001677 0  3.375 -2.514804579549941 0  0.5446428571428571 -2.455357142857143 0  2.766554087216865 -1.745795909102064 0  4.525516559010988 0.1490283123570637 0  3.87554132162248 -0.8280516069565407 0  4.53622906132958 -1.76963146596888 0  0.4243951612903226 1.875 0  0.554851858345021 2.446861709948876 0  5.575604838709677 -1.875 0  5.445148141654979 -2.446861709948876 0  4.875 -2.575604838709677 0  1.440573466105381 1.721823466105381 0  2.193519495405082 1.631799415080963 0  5.472630128027442 -1.330813078900983 0  4.750126894286386 1.343813447143193 0  5.607142857142857 -0.375 0  2.625 2.607142857142857 0  0.3921763197810531 0.375 0  5.60901753622775 0.3750000000000001 0  1.125 2.613454943235572 0  3.701856738980915 1.163867513386733 0  3.736112850688509 1.696746876851408 0  3.519183195491339 0.06065128742606851 0  3.973620778217027 -1.693401606145563 0  0.8125 -1.444978632478633 0  1.256657745408029 -0.6381828923025001 0  0 -1.125 0  5.019997778514942 0.6475044429701156 0  4.125 3 0  1.285569332703024 0.8955310332120207 0  0 -0.375 0  0.4638922275641027 -0.5625 0  2.056635259780241 -0.07226025978024064 0  2.130475508371123 -1.000827820434028 0  2.677484372338113 -1.267299126394495 0  2.848680878891876 -0.4956836878192376 0  4.937901885089369 -0.3340245904575954 0  4.393563081308854 1.919544166973803 0  4.053859126323572 0.2813938488760716 0  1.181051704329518 0.1167440895674965 0  1.971354166666667 2.607142857142857 0  4.875 3 0  2.519350561152006 0.08093582719875507 0  3.139443301924015 -1.442524927271905 0  6 2.625 0  1.849169256239503 1.945480934753207 0  1.867196483071171 0.7892354369530077 0  1.192506522009051 -1.184888428863342 0  3.375 3 0  3.603234392481833 2.536866305538572 0  3.846752908916648 -2.537707634073423 0  2.014339897513945 -1.886932065281681 0  4.038392037966526 0.8363324773944992 0  4.421242701722609 -2.552534687860327 0  3.715389848650903 -2.108856956172843 0  2.985668138820625 1.127780908772207 0  0.4500794934449803 -1.173696061598557 0  3.366760888116476 0.8891914618875614 0  1.869163043700093 -0.6107175804171328 0  2.175114838273305 -2.53928723780967 0  3.014417665538299 -2.241523065744933 0  2.625 -3 0  2.819968145332426 -2.617202329573456 0  5.625 1.3125 0  5.563263538826679 0.814027077653358 0  5.625 3 0  2.550041671270923 0.7074928970804664 0  4.014583091741168 2.59891853892166 0  0.6440729668673318 1.499523832583132 0  5.219449799568244 -1.660557808485412 0  3.474012636702472 -0.9300738420779746 0  0.8125 -2.142857142857143 0  1.875 -3 0  4.945010515846405 2.554471797033147 0  2.611388969012422 -0.8478354915063726 0  3.223746055611014 0.3371683159691745 0  4.843939757110898 -0.9483610977948225 0  4.66556954816842 -2.220888354477256 0  4.125 -3 0  4.448108395110625 -0.2524000502731018 0  5.63671875 2.05078125 0  2.822484133964224 1.491327727709286 0  3.378213092764193 1.903125093887009 0  5.607142857142858 -0.9231200445788541 0  2.12639693023183 1.100450516019641 0  5.625 -3 0  0.375 3 0  0 2.625 0  6 -2.625 0  0.3931307155906299 -0.01856779822591927 0  0.7651723094668359 0.253768144801553 0  0.8549199714190221 -0.5218333744252657 0  1.421989550604507 -2.133299471886336 0  1.582611957351803 -2.615166692128227 0  4.420331038793115 1.133144382396504 0  0.375 -3 0  0 -2.625 0  5.078156723571596 1.54697017071479 0  1.877250715260938 -1.288801575378032 0  2.409169073010687 -1.916147168931784 0  1.146151077069952 -0.268000681695328 0  1.726784828652036 0.1335728643263411 0  2.745628549924675 0.3838821021397905 0  3.011490900297165 2.613625569196862 0  5.62463365164608 -4.137655439684362e-05 0  1.875 3 0  1.125 3 0  6 0.375 0  2.625 3 0  6 -1.125 0  6 -0.375 0  4.875 -3 0  6 -1.875 0  3.375 -3 0  1.125 -3 0  0 -1.875 0  0 0.375 0  0 1.125 0  0 1.875 0  6 1.125 0  6 1.875 0  4.813017731148975 0.9677363687196439 0  2.807371623148303 2.264962208227767 0  0.3692953377255688 0.7436406761680247 0  5.615625 2.615625 0  0.9395725521479794 0.9812935874921043 0  1.390920759130215 1.238984550166515 0  0.9588795022085095 1.672288500195331 0  0.87712392565124 -2.641031728267331 0  0.3665732993114588 -1.532068934251388 0  1.841944504733106 1.591700334213738 0  4.832970185136452 0.3385359233091246 0  4.169083540479082 -0.5746148619765254 0  5.281697083409333 -0.2046640461936881 0  4.072845380968044 1.784516523483641 0  1.293029195762321 -1.543079049035419 0  4.878733886054284 -1.720697370582964 0  3.609167475697567 -1.687579152754035 0  4.836981942878573 2.222259978217028 0  4.204938267037067 -0.9128589669335569 0  5.183079748175263 -1.111742407358677 0  1.22880920402559 2.273525645756405 0  1.469404041858679 2.654509729682302 0  4.566761045622856 -1.414165869120005 0  4.531680518427715 1.606803989975667 0  1.918929241273175 2.27471131819245 0  3.526908551984126 2.207147627530056 0  1.85683899811842 0.4533569963423589 0  1.173935704088662 0.4636872214645547 0  2.116602160898525 -2.207718541460878 0  4.51821874648995 -1.042568353750147 0  2.721551512787618 -0.1859357475290837 0  5.294921875 2.001953125 0  5.288671874999999 2.670703125 0  2.199940744527116 0.7756512213396931 0  4.090519467638897 1.163401080812838 0  2.298177083333333 2.670581371753247 0  2.484362362207526 -2.687319997637033 0  3.300530569898859 1.207053005217563 0  3.936078051808127 -1.362164062673065 0  5.341218841330105 0.5689885832563615 0  4.226314635599414 0.5638853401248238 0  2.524510956818563 1.635483567726497 0  0.3219546452225031 1.389066019009203 0  3.139061555368706 -0.3133905221155423 0  3.145569907612562 -0.6461828528638952 0  3.701427442033566 -0.2272880199383185 0  1.686782510365738 -1.934662341426927 0  2.427696494631844 1.944064773844184 0  3.901817839425732 1.422433381251312 0  2.356489883772755 -0.2025512972825912 0  4.820757576351118 -0.01647699434507374 0  3.064415631228375 1.809719380809516 0  4.643002705009462 2.69782572459795 0  4.31624250429496 2.728112685900672 0  1.520100694408069 -1.314302747998057 0  3.754559308601717 -0.5375020107416889 0  0.25 -2.0625 0  0.8125 -1.826636904761905 0  4.861738621091127 -0.6367294570749906 0  1.545149590740081 2.015832101819233 0  3.857113324620078 0.04127675193819436 0  0.2479605082936806 -0.9375 0  4.21293081604216 2.352874368135467 0  3.123697687162562 -2.708090473740421 0  3.415275466010259 -2.202892416689829 0  3.601103065320932 -2.727566580522146 0  1.558629964945672 -0.5289921609136927 0  3.324859026263307 -1.198136798699183 0  2.424350759683917 -1.092246517929194 0  2.746461744851735 0.9398108087856579 0  0.8882026075771248 2.364936378889839 0  0.8066140242673685 2.679750706449505 0  4.504454978490482 0.4491616076730165 0  4.26881784709759 -0.009649566552704852 0  1.3125 -2.75919801263958 0  1.120577805361368 -2.179971784090952 0  3.734048623985226 0.8602850349907256 0  3.527828882622877 1.432983527791925 0  1.959527908877504 -1.578124930685265 0  0.7602573574724077 1.220872343399509 0  0.6691217533356228 0.8531987603309893 0  1.877213035764122 -2.564340152892596 0  3.32172153715047 2.685939810104955 0  4.285565286275464 -1.569057178671076 0  4.227521511146333 -1.876903861267543 0  5.34375 1.40625 0  5.71875 1.59375 0  1.56245959534423 0.766197796710638 0  0.2458241530773257 2.4375 0  0.2794123857609179 2.138568368155198 0  5.754175846922674 -2.4375 0  5.720587614239082 -2.138568368155198 0  0.6472458227887359 2.124973059628837 0  5.124241021325378 -2.352544055105642 0  5.189172233440652 -2.675873509996353 0  5.364643151640443 -2.12768524739804 0  2.298896485720138 1.348573610321417 0  0.6008689899200503 -2.745193425346304 0  0.307092513690391 -2.651812055231556 0  0.2683745826107009 -2.363146293324415 0  0.5223214285714285 -2.165178571428571 0  0.3925308914031174 2.699891746740618 0  5.607469108596883 -2.699891746740618 0  2.138365140930822 1.917102089073091 0  1.25507379660067 1.953406658386351 0  4.135759889512124 -2.476847355718572 0  0.5330865684534913 -0.8980875812659357 0  2.548249345531056 -1.538893887888457 0  2.67686064875775
[...]
<CellData  Scalars="f_26-2"> 
<DataArray  type="Float64"  Name="f_26-2"  format="ascii">2.9536243159556747e+68   1.8912412220678667e+69   1.7256242511637977e+69   4.1599387597163133e+69   9.0804810643875573e+68   1.4335379989856157e+69   -7.0908764965078216e+68   4.8728684459345621e+68   -1.8287486359214998e+67   4.3756435201143190e+67   7.5991272091944036e+68   -1.6109729370503631e+69   -6.3097614561776535e+68   -1.4615658336447482e+69   -1.0787416134517377e+67   -3.6866183000157775e+68   -1.3190958118342161e+69   1.9026851289728290e+68   -3.0185192259603355e+68   -9.1981864268961435e+67   1.1633982188605705e+68   -5.1283627373518018e+68   -4.4493357131546938e+68   1.4469633986335848e+68   3.6873849786399729e+68   -1.4683510502248724e+68   2.3617932971550669e+69   3.1957345615999528e+68   4.1300864398951072e+68   -4.6416831712625985e+67   1.3717755576721912e+68   -7.9672238279241077e+68   -1.9517166447354789e+66   -1.4652991325105454e+69   1.0849457554587303e+69   1.0230279999944714e+69   -3.1709343858438739e+67   9.0543494470376767e+67   -1.1698194171855884e+69   2.7466529786507201e+68   5.3505739710748823e+68   -2.6871658255732788e+67   -7.7563010569145973e+68   -8.3763320619640428e+68   -2.5339971729787408e+69   -1.1483182408585585e+69   -1.0141898709721454e+69   -3.1907789756583496e+70   1.7491168843471601e+69   -1.4416389534505056e+69   1.5257206204357338e+69   -2.3512749623540439e+69   1.3689592185485101e+69   2.7102117706307054e+68   1.1258994896839674e+69   9.9419983478256538e+68   -1.8011753699928171e+69   -8.1700040368284091e+68   -4.6641067825451895e+67   -5.6049442213708752e+67   8.1488675760099809e+67   1.2864729880257194e+68   -7.8937949850910287e+67   -2.7630041471422387e+68   5.4524025982901615e+69   -1.0121761996880901e+70   7.2708113210296826e+67   -4.0896230917358788e+69   -2.2818121028644000e+68   5.9609784546506143e+68   -2.8621965829318815e+68   -1.1259121568326335e+69   3.7569495248646040e+68   4.4209131756373650e+68   -2.0257322401529960e+68   -5.8064737230753783e+68   1.4627647493014165e+69   8.7316015226193634e+67   -4.8677555242401604e+68   -9.7964823169928261e+66   -9.8669174390594499e+67   -5.5548125307525570e+67   -1.0826148511522275e+68   2.3042537385450835e+68   1.9656429014870936e+68   3.7792234301846404e+68   -1.4532175964242913e+68   3.0882528192910825e+67   -2.0352733196353472e+68   -3.7783679291560113e+68   9.5315452326465503e+67   -7.2876031830346238e+68   -2.7635717025302761e+68   6.2696745883566372e+67   1.8282723961186874e+68   1.5557273785607682e+68   -3.1134171011572205e+68   -4.4408163344190566e+68   -2.4396337790259573e+70   1.0813148277258814e+69   9.9163942246743557e+68   3.1380421935472039e+69   1.1001117248359425e+69   1.4722899317889573e+69   -4.3868851624957662e+68   -2.2203779761319708e+69   3.8500600657240315e+70   -5.9937786858074007e+68   -9.3665738680435291e+68   4.2171632496204534e+68   6.7668817508465152e+68   -6.8068319157226842e+68   -5.7243512391731381e+68   -1.8453459203094562e+68   -1.3918257737573102e+68   4.2809836366766557e+67   2.7091514009769155e+67   -3.5706945667074302e+68   -8.5830987635469187e+67   7.3302450470071803e+67   3.0680885063779983e+68   -2.9787275855157312e+67   -4.5202097994142201e+68   7.4612050945501569e+67   2.1076419641450422e+67   -3.0844051469362093e+67   -6.1460563276512631e+67   6.3549902698066742e+69   -8.5632340303728191e+66   -1.0703531299257564e+69   -2.0476886531626836e+69   5.0063100979946937e+68   3.9833205092076529e+69   -2.7609252671673360e+68   -3.9497883990960303e+68   -4.8165150239726667e+68   8.8567933606910107e+69   2.8090002520520177e+69   -4.7528647194668362e+68   -7.8536267696062604e+68   -6.6576420422720972e+68   -7.5915285756702929e+68   -5.3643757363792527e+68   -2.0520275868482686e+68   6.5976421021254617e+67   -1.4297620621111540e+67   1.9330205622828111e+69   9.3556992022557324e+68   2.4831171843726273e+67   9.4650865272615951e+68   -9.8754732634276803e+68   -2.5785863352518419e+69   -5.8322169631183866e+68   -9.4303988714991945e+68   1.8820561127498883e+67   -7.2551041786751363e+67   2.7208218901497330e+68   3.1571434023414158e+67   -1.2131371434369698e+70   -1.8480073668925063e+69   -1.7894092142965115e+70   6.2359093043203700e+68   3.3292842905012029e+68   4.6126305727218663e+68   5.0881662991662474e+68   4.2789096491512035e+68   3.7952736650147568e+68   6.4627589208497898e+68   1.4463841817126898e+68   7.6336043571369569e+67   -3.7535595143062968e+68   -4.7795483152029780e+68   -2.2518141809553679e+69   -2.3867639051482707e+69   -4.5954492371999709e+68   -2.5055792891155649e+68   5.5081631744773384e+68   9.0618152381800413e+68   6.2711884580304810e+68   3.1147663609908533e+69   1.7966330117118365e+70   3.0400696835209361e+69   4.7851950845705090e+67   -8.4054106602858779e+67   1.0453198081511860e+68   2.9970410046285828e+68   6.5001860830104540e+68   -1.7482765101450469e+69   -1.3251660733154681e+68   -3.4129847855312008e+67   -2.0204895136457545e+68   -1.8950195845285184e+67   1.0983796157864519e+69   1.2907299504548848e+69   7.7603838161664459e+68   9.9521504949394143e+68   1.2844325388605787e+70   2.2251439781730907e+69   8.9927953477739886e+67   8.0158873305588761e+68   8.4716534299462381e+68   -7.7242122636268557e+68   -9.1346112363603108e+68   -1.0024779412209686e+69   -5.6644546604292136e+68   5.0244889367340625e+67   1.1674508410895237e+68   -4.0073929309519046e+68   -2.7495394100338698e+68   4.8191345827105614e+68   1.0166786170414407e+69   -3.6428242269423198e+68   -3.5229945932517484e+68   4.5227493729199424e+68   6.1710198875460521e+68   -2.2789712995683598e+68   3.9382189186187375e+68   2.9402212632214074e+68   -1.1058677010172160e+69   -7.1164264113654066e+68   -5.6724854307970775e+69   -9.0017299320616731e+69   2.0468151469835148e+70   1.6472924880908834e+70   -2.0684276512308218e+68   2.6406881924723639e+70   2.6828749864495231e+70   -2.7616240290608135e+67   -1.2115365103252911e+68   2.3990699131688881e+70   1.1685198922210480e+70   -3.4517542178765977e+68   9.0993901969175643e+67   5.4106998477179957e+66   4.8365605020460291e+67   2.1590087252002717e+68   2.3665370947119174e+68   3.6439645639659027e+69   -5.6439244779876285e+68   -1.3891581140164180e+70   -2.5518123557954714e+70   -2.9877824596788019e+69   -3.3004213397370529e+69   7.8031140020762382e+68   5.9847505536624830e+68   -2.7774623364646569e+68   2.6441985465122767e+67   -2.7284942154991108e+67   -1.7178480502701785e+68   -3.7243394471254150e+67   1.2898746179509597e+67   -4.0757511253685502e+69   -4.2004682806134863e+68   -4.1568474401587995e+68   -1.6260034790327476e+68   2.1959466021263307e+70   -9.9034862146722089e+67   -2.8466219980445789e+68   -3.3630193033164039e+68   -5.3234621040269507e+68   2.4044836599567767e+68   -3.1315051179099999e+68   -1.5194877452712324e+68   5.2260284408460525e+67   -6.7725773235841156e+68   -1.6353610117752454e+69   -2.7913358256455181e+68   1.1953336520550532e+69   -2.4498577027851562e+68   -3.9724782375837896e+68   -5.0215790822997373e+68   1.1506671876323965e+68   -6.3931598498864318e+69   -2.0283659105663626e+68   3.5506333688012702e+68   2.9713383985750512e+68   -2.1370869234023117e+69   6.2614599297140952e+68   1.7809523193774282e+69   2.4580491329186859e+69   -6.5156529220817607e+69   -4.8024967555494950e+68   -1.0250894457405231e+69   -9.9384099322304395e+68   -5.7852381857503002e+70   -2.5245525820440253e+70   -5.6273799441118871e+70   -3.3292614670592394e+69   -8.2491474573115414e+68   -3.0004827292040999e+69   1.2508204447275828e+69   1.7118018172882526e+69   4.6412846208825274e+68   3.6475440089620697e+68   7.1565586754326541e+68   3.4963728962307469e+68   3.5320985305086690e+68   4.6104120699771139e+68   -6.1108963538692746e+67   -1.4307279218982379e+68   9.8246731564219060e+69   4.4415044407742827e+69   9.9456846216992831e+67   1.2238799353437460e+70   7.8467816805730854e+68   5.0023544890006006e+69   8.9903892818804313e+68   1.2231549896643809e+69   6.2472540251285739e+69   1.6751364914508920e+70   4.9750818358705756e+68   9.6422528509826948e+69   9.5647608955813861e+68   2.5127590134380405e+69   4.9737265461733668e+69   4.2976307317444319e+69   -1.1408420748133510e+69   -7.7330673804695928e+69   4.3177954002406504e+68   7.4044248966324900e+68   -1.1485301269943278e+68   -5.1402053179829837e+69   -2.4990907637523769e+69   -4.7103407172170980e+70   -9.7427899663241515e+69   -1.1327554078678183e+70   -1.0867501177852588e+70   -1.4029616971647585e+69   -2.7840309780300433e+68   -2.8505992670369567e+69   -5.3167220666722365e+68   -9.2333082323144038e+68   9.1491637223618650e+69   2.1654064051226615e+70   2.1114685482212937e+70   1.0577234654064650e+70   -1.3944832036169504e+69   -1.1728164610150329e+69   -2.3614109817143612e+68   -2.1344749508026085e+68   -7.8394710875753954e+69   -3.6681350773888873e+69   3.1483970822622662e+70   1.5655898184421625e+70   1.9727012953864910e+68   7.6372644612301577e+67   2.3757234947916527e+67   3.6385251800093400e+67   5.8657054631972172e+67   4.9368245490832880e+67   -2.6620481580323620e+70   -1.2410393304862096e+70   -1.6054661756105899e+70   -7.7987472773005934e+69   -8.1739819997015082e+67   -1.0201422155189150e+68   -6.7230740635632936e+68   -4.7601727605488212e+68   -2.6388038706204901e+68   -3.1162524165993231e+68   4.2324237226964477e+68   -2.6015597308812801e+68   -7.5688827063291379e+68   -1.2940568836914995e+69   2.0055714963761656e+69   2.6706253342538020e+69   -5.6513462419737816e+67   1.4775563024599635e+67   2.5100447133845665e+68   2.7960851702800878e+68   -2.5915411368921106e+69   -2.7826817342390016e+69   -1.3788088670049053e+68   5.4228106345176659e+67   -3.1635542415765804e+68   -1.9227361979774294e+68   7.1244764445777816e+67   -1.0746060531141083e+68   6.5186769750690594e+69   2.4851595169027359e+69   -6.4323127117696836e+67   -8.2798339174152135e+67   -1.5402137465707315e+69   -1.6328125402584913e+69   -1.8363324606936043e+67   1.8644888715642697e+68   -6.4670468327533570e+68   -2.9088968747927326e+68   2.8947962411406200e+68   2.0779869804166109e+68   9.3406514473161408e+67   2.0177287254935262e+68   9.3732932469804362e+68   -6.7095862683076438e+69   -7.7300915287293547e+67   -1.8972025385173521e+68   2.5237833657464660e+68   1.4385696607548585e+68   -2.5537970030412906e+69   -2.2313720845094756e+69   1.4558551259647126e+70   2.9385832774323976e+70   1.1046787519864992e+68   1.9936148611678477e+67   -1.1718879829011925e+69   -9.3113609613590085e+68   3.1962507140543202e+69   5.6337361163653655e+69   -1.5183116332980511e+70   -1.1348893100820644e+70   -5.7089162140971417e+68   -6.7621943068545367e+68   1.1262948234803076e+68   1.8403605586066939e+68   -5.5589453677039733e+68   -2.3172812380205284e+68   -7.4739633103430160e+68   -8.2425678349979330e+68   -7.8103515963302271e+67   -1.6831098752231550e+68   -5.1428943273305034e+69   -1.1415919239074598e+69   -9.2337848119999461e+67   -1.2110796145537292e+66   1.4627807917636078e+68   9.0410738662469411e+67   -1.9824687872074011e+68   -1.9100539105830326e+68   1.2792028455189091e+69   1.3018214349047800e+69   -1.8663804819548849e+68   -4.5008574790066224e+67   -1.0547192848842412e+69   -8.6084019446022645e+68   2.6425437300847534e+68   3.9364592916282852e+68   -5.7503002358292463e+68   -6.0344820118462226e+68   -3.6134258910204369e+68   -4.1374180003549043e+68   1.0564116212747370e+69   1.5504141096962405e+69   2.0698231635368270e+70   8.8443312944983167e+69   1.4451805667935215e+69   1.3502718746028057e+69   3.5034330351303456e+67   -5.4369788845239042e+66   -2.0952215385921049e+69   -7.9010642261040118e+68   3.5678969587338655e+69   3.5003581019770616e+69   -3.1772882787493289e+68   -3.8318258350909883e+68   7.8479827295834018e+67   7.5340971635649638e+67   -4.6115900473365359e+68   -3.3555041379006550e+68   -1.5189611207911829e+69   -6.7712161275999897e+69   -1.6370665558891982e+69   -1.8623867168008172e+69   -8.6407015818636770e+69   -1.4097678459894375e+69   2.2704858714556138e+68   -1.3305780470118430e+68   -4.1121406908183748e+69   -7.7436966621757803e+69   7.1352572162473131e+68   8.0829028423638628e+68   4.0604280738868061e+68   3.0171879877967570e+68   1.0535587647623239e+69   7.3854121372209964e+68   -2.8624699499327186e+68   -1.7689739378232605e+68   1.7803778889364194e+68   4.4722395608562643e+67   1.2299193771453738e+68   -1.2616524696290186e+68   -7.1711290047962450e+68   -8.5365538086416501e+68   -4.3979584828496171e+68   -4.5994750295144138e+68   -1.0605386468550973e+70   -1.9376763244708912e+69   2.5952492049609258e+69   3.0243142569031278e+69   -6.1756167644808958e+68   -5.6835108600731481e+68   -5.5776933340602196e+68   -6.4258516335775253e+68   1.1778788553974211e+69   1.3376999521860989e+69   1.2061486416431194e+68   9.4033083444681608e+67   7.1106407034687067e+67   -4.6743851488007570e+67   -3.1403125796650043e+68   1.9998526441987462e+68   1.7045421495368141e+70   7.4656615900514154e+69   2.8396862382295712e+67   -2.3427660446427106e+67   -2.2328558871460605e+67   1.6721003488644567e+67   -1.8856821071671590e+69   -1.5811673603155416e+69   1.0391125665957373e+70   1.9177446670721181e+69   1.7796870124772981e+68   2.2633975896881302e+68   -1.7475758974510444e+68   -2.7137615845360550e+68   -2.0235032988497753e+69   -1.2767038204131891e+69   8.3576769246115846e+67   3.2602436730498935e+68   1.6886311849412868e+69   1.1480618289825231e+69   3.7144828584828324e+67   3.5949191794128312e+67   3.2387157822867029e+68   1.6844176220890222e+68   -9.6115070100106594e+67   1.4943379849495007e+68   2.9530362839264507e+68   4.9541172199250268e+68   -2.7247604607130368e+68   -2.1952323333876160e+68   -1.8137482445817163e+70   -8.0348544802938504e+68   -4.4619957000501751e+70   -2.4708647704069688e+70   -2.0972510639893079e+69   -1.8852919995411705e+70   4.4562443241640560e+69   3.4726429436507029e+69   4.1661183501096989e+68   2.6719146401428371e+68   -6.6759476364658116e+68   -1.0142816793102115e+69   -8.3050371297243145e+67   -1.0328965702737254e+68   3.9257371316351204e+67   4.7339343346425617e+67   -1.2164076469276159e+68   2.6213175082254044e+67   9.5742082853083491e+68   5.0545137816999688e+68   7.8003471995554385e+68   6.5795682330334964e+68   5.1852407411779679e+68   5.4040437133850340e+68   3.8054925480747745e+68   4.5415506110820042e+68   -1.8241915113511910e+68   4.1197303945398715e+67   -6.4002033615600842e+68   -5.5674441918416600e+68   -4.5268921981756721e+68   -5.0334222047810316e+68   4.0089441111728505e+68   4.4250401609528387e+68   -5.4497159118054359e+67   -5.8277659886783567e+66   1.3873705181167819e+69   3.2742804148617983e+69   -1.6501943178623475e+69   -4.5642505548696007e+69   -4.9589324426068653e+69   -1.6103798729227919e+69   3.5985712897125055e+69   7.8459585059985704e+68   5.6232013353207917e+68   1.4027723879897725e+70   1.9243506330276452e+69   2.3106627729892675e+69   4.9887572150471259e+67   3.0641945465362617e+67   -4.5308448093186129e+67   -1.0760448262458587e+67   -8.9549351294367404e+67   -1.1660380190885153e+67   -1.1534753679657028e+69   -1.0672348315234062e+69   1.8375893250813041e+68   2.9050206385339759e+67   7.7498984088866544e+67   1.3313218957050143e+68   -3.6422501581671353e+68   -2.9858912246771410e+68   9.6895484886377177e+68   4.5106566167525245e+68   4.1609470693958440e+66   4.4791016659405150e+67   1.1418446101696250e+68   1.3126387734434763e+68   -9.5212689210005110e+68   -1.0690153919263576e+69   1.0848442024661828e+69   1.1143759971844417e+69   -4.2882831079688509e+67   1.4489570664964530e+67   -6.6880231817780128e+69   -2.6646256709492926e+69   1.2653505652202964e+69   1.2397034666264475e+69   1.7213770554130524e+68   3.0147989580682838e+68   8.2265743723427019e+69   4.2536625517596777e+69   -3.4407475248764380e+69   -1.0319524745924653e+70   -5.2840016526427042e+68   -4.7568021511678813e+68   5.1270192680978633e+68   6.1742215961125159e+68   -2.1357031633846122e+69   -2.4605903236847450e+69   -1.8204982104320065e+69   -1.8750919935093658e+69   -1.1955136673510139e+67   -5.0530498102734796e+67   2.1201617122294133e+69   4.5365626981830013e+69   -1.3178672081222828e+68   5.8199665789914266e+67   -5.0692254473563837e+69   -1.6365687712759702e+69   -2.3842735635071930e+67   2.2955580248301167e+68   2.2629895930720572e+69   1.1957156858930545e+69   6.1846034310061973e+68   6.1838200789244468e+68   -3.7590585868397147e+69   -7.3478032992251499e+69   -2.2219091617588703e+69   -2.3555071098490876e+69   -2.9888165310606427e+69   -9.2120797187522254e+68   3.1563534766864364e+69   9.8605397586921363e+69   -1.0045386841201439e+68   -1.6423881969469727e+68   7.3603633583635436e+68   3.0555743049417190e+69   1.5426386388200836e+69   1.3847441003441727e+69   2.4424563545679416e+69   2.3283059708991437e+69   2.7253506726547968e+69   3.0813118294853424e+69   2.3612942111132226e+69   7.1406457549296634e+69   -1.2048089580063351e+69   -3.0576245429452942e+69   -5.2990871319684395e+69   -1.2155601252895983e+70   2.9758276684502894e+69   1.8127985479981851e+69   5.8739935078623525e+69   2.3437290312728643e+69   9.5275961931490051e+70   9.4577666893054288e+70   -7.8351297170069140e+68   -7.9893714449143934e+68   -7.4010664793151670e+68   -6.1578332404061842e+68   4.4532406301263990e+68   4.2178626422716255e+68   1.3823329564715940e+70   3.7811796586700641e+69   -1.8422980848633891e+69   -1.4918302629190143e+69   -1.5895040822678516e+67   -4.1960763548077781e+67   -3.3251735019902216e+68   2.3759632724785329e+67   -4.4425037899466231e+67   -1.3814952975641765e+68   -5.7656450880728087e+69   -2.3415433563990144e+69   4.4754954084083013e+69   3.3756515071714073e+69   -3.2825469978306981e+69   -3.1353465182028788e+69   2.8222520015904382e+68   2.0338636744547916e+68   4.3884289887532168e+68   3.4845787291419329e+68   1.8042947345886969e+67   4.3772014944227782e+67   2.5655610709632481e+68   2.1073794560749069e+68   1.1553052540956503e+69   1.2348037998625407e+69   9.2236882337840970e+68   9.8669948914892853e+68   9.0742373607885420e+68   8.6609338547159600e+68   7.0990462860239414e+68   8.2074228596820258e+68   -1.3561919300223953e+68   -1.2899634288305777e+68   -1.6422960335667266e+68   1.5664166017696655e+67   </DataArray> 
</CellData> 
</Piece>
</UnstructuredGrid>
</VTKFile>