<?xml version="1.0"?>
<VTKFile type="UnstructuredGrid"  version="0.1"  >
<UnstructuredGrid>
<Piece  NumberOfPoints="2534" NumberOfCells="4892">
<Points>
<DataArray  type="Float64"  NumberOfComponents="3"  format="ascii">0 3 0  0 -3 0  6 -3 0  6 3 0  3 -3 0  6 0 0  3 3 0  0 0 0  3 0 0  0 -1.5 0  1.5 -3 0  1.5 3 0  0 1.5 0  6 -1.5 0  4.5 -3 0  6 1.5 0  4.5 3 0  4.25 -1.25 0  1.75 1.25 0  2.25 -1.5 0  4.5 0.75 0  1.541666666666667 -0.2083333333333333 0  3.219827586206896 1.521551724137931 0  1.125 -1.875 0  4.875 1.875 0  0.8702651515151515 0.631628787878788 0  2.25 2.214285714285714 0  3.316176470588236 -1.904411764705882 0  5.214285714285714 -0.75 0  5.03125 -2.03125 0  0.96875 2.03125 0  4.041666666666667 -0.2083333333333333 0  0.8205128205128206 -0.9134615384615387 0  3.942582294752138 2.189194098250713 0  3.061487638533674 -0.968243819266837 0  2.192708333333333 0.4427083333333334 0  4.157850026972511 -2.182329047049442 0  2.331456616463011 -0.5285296485744057 0  3.654761904761905 0.5654761904761902 0  5.25 1.125 0  2.563673341677096 -2.280663329161452 0  5.126674107142857 0.1283482142857142 0  0.75 -3 0  0 -2.25 0  6 2.25 0  5.25 3 0  0.7680051888903191 -0.1384245958639337 0  1.617229471026718 -1.006949429867069 0  4.218940341429579 1.468686552856807 0  3.75 -3 0  2.25 -3 0  0.75 3 0  5.25 -3 0  6 -0.75 0  0 -0.75 0  0 0.75 0  2.25 3 0  6 -2.25 0  0 2.25 0  3.75 3 0  6 0.75 0  1.787573018358365 -2.279142327213878 0  3.195025188237337 2.273430909158844 0  2.528159645294386 1.151699106559287 0  1.041598427383826 1.322848427383826 0  1.520951704545454 0.4634232954545453 0  1.580357142857143 2.325892857142857 0  4.919642857142857 -1.361607142857143 0  4.54981623521892 -0.6483700862895494 0  2.99317863826574 0.6697091957925523 0  3.450169349029507 -0.4574865881858001 0  3.605016126014028 -1.323102984840902 0  2.745144658907412 1.882241931337371 0  0.4898065586600511 1.092777516238393 0  0.5 -1.875 0  1.217028489597945 -2.469323836800685 0  1.659912685567181 -1.604738056701542 0  5.4375 1.6875 0  5.34375 2.34375 0  4.52741779500503 2.384139265001677 0  3.375 -2.514804579549941 0  0.5446428571428571 -2.455357142857143 0  2.766554087216865 -1.745795909102064 0  4.525516559010988 0.1490283123570637 0  3.87554132162248 -0.8280516069565407 0  4.53622906132958 -1.76963146596888 0  0.4243951612903226 1.875 0  0.554851858345021 2.446861709948876 0  5.575604838709677 -1.875 0  5.445148141654979 -2.446861709948876 0  4.875 -2.575604838709677 0  1.440573466105381 1.721823466105381 0  2.193519495405082 1.631799415080963 0  5.472630128027442 -1.330813078900983 0  4.750126894286386 1.343813447143193 0  5.607142857142857 -0.375 0  2.625 2.607142857142857 0  0.3921763197810531 0.375 0  5.60901753622775 0.3750000000000001 0  1.125 2.613454943235572 0  3.701856738980915 1.163867513386733 0  3.736112850688509 1.696746876851408 0  3.519183195491339 0.06065128742606851 0  3.973620778217027 -1.693401606145563 0  0.8125 -1.444978632478633 0  1.256657745408029 -0.6381828923025001 0  0 -1.125 0  5.019997778514942 0.6475044429701156 0  4.125 3 0  1.285569332703024 0.8955310332120207 0  0 -0.375 0  0.4638922275641027 -0.5625 0  2.056635259780241 -0.07226025978024064 0  2.130475508371123 -1.000827820434028 0  2.677484372338113 -1.267299126394495 0  2.848680878891876 -0.4956836878192376 0  4.937901885089369 -0.3340245904575954 0  4.393563081308854 1.919544166973803 0  4.053859126323572 0.2813938488760716 0  1.181051704329518 0.1167440895674965 0  1.971354166666667 2.607142857142857 0  4.875 3 0  2.519350561152006 0.08093582719875507 0  3.139443301924015 -1.442524927271905 0  6 2.625 0  1.849169256239503 1.945480934753207 0  1.867196483071171 0.7892354369530077 0  1.192506522009051 -1.184888428863342 0  3.375 3 0  3.603234392481833 2.536866305538572 0  3.846752908916648 -2.537707634073423 0  2.014339897513945 -1.886932065281681 0  4.038392037966526 0.8363324773944992 0  4.421242701722609 -2.552534687860327 0  3.715389848650903 -2.108856956172843 0  2.985668138820625 1.127780908772207 0  0.4500794934449803 -1.173696061598557 0  3.366760888116476 0.8891914618875614 0  1.869163043700093 -0.6107175804171328 0  2.175114838273305 -2.53928723780967 0  3.014417665538299 -2.241523065744933 0  2.625 -3 0  2.819968145332426 -2.617202329573456 0  5.625 1.3125 0  5.563263538826679 0.814027077653358 0  5.625 3 0  2.550041671270923 0.7074928970804664 0  4.014583091741168 2.59891853892166 0  0.6440729668673318 1.499523832583132 0  5.219449799568244 -1.660557808485412 0  3.474012636702472 -0.9300738420779746 0  0.8125 -2.142857142857143 0  1.875 -3 0  4.945010515846405 2.554471797033147 0  2.611388969012422 -0.8478354915063726 0  3.223746055611014 0.3371683159691745 0  4.843939757110898 -0.9483610977948225 0  4.66556954816842 -2.220888354477256 0  4.125 -3 0  4.448108395110625 -0.2524000502731018 0  5.63671875 2.05078125 0  2.822484133964224 1.491327727709286 0  3.378213092764193 1.903125093887009 0  5.607142857142858 -0.9231200445788541 0  2.12639693023183 1.100450516019641 0  5.625 -3 0  0.375 3 0  0 2.625 0  6 -2.625 0  0.3931307155906299 -0.01856779822591927 0  0.8549199714190221 -0.5218333744252657 0  0.7651723094668359 0.253768144801553 0  1.421989550604507 -2.133299471886336 0  1.582611957351803 -2.615166692128227 0  4.420331038793115 1.133144382396504 0  0.375 -3 0  0 -2.625 0  5.078156723571596 1.54697017071479 0  1.877250715260938 -1.288801575378032 0  2.409169073010687 -1.916147168931784 0  1.146151077069952 -0.268000681695328 0  1.726784828652036 0.1335728643263411 0  2.745628549924675 0.3838821021397905 0  3.011490900297165 2.613625569196862 0  5.62463365164608 -4.137655439684362e-05 0  1.875 3 0  1.125 3 0  6 0.375 0  2.625 3 0  6 -1.125 0  6 -0.375 0  4.875 -3 0  6 -1.875 0  3.375 -3 0  1.125 -3 0  0 -1.875 0  0 0.375 0  0 1.125 0  0 1.875 0  6 1.125 0  6 1.875 0  4.813017731148975 0.9677363687196439 0  2.807371623148303 2.264962208227767 0  0.3692953377255688 0.7436406761680247 0  5.615625 2.615625 0  0.9395725521479794 0.9812935874921043 0  1.390920759130215 1.238984550166515 0  0.9588795022085095 1.672288500195331 0  0.87712392565124 -2.641031728267331 0  0.3665732993114588 -1.532068934251388 0  1.841944504733106 1.591700334213738 0  4.832970185136452 0.3385359233091246 0  4.169083540479082 -0.5746148619765254 0  5.281697083409333 -0.2046640461936881 0  4.072845380968044 1.784516523483641 0  1.293029195762321 -1.543079049035419 0  4.878733886054284 -1.720697370582964 0  3.609167475697567 -1.687579152754035 0  4.836981942878573 2.222259978217028 0  4.204938267037067 -0.9128589669335569 0  5.183079748175263 -1.111742407358677 0  1.469404041858679 2.654509729682302 0  1.22880920402559 2.273525645756405 0  4.566761045622856 -1.414165869120005 0  4.531680518427715 1.606803989975667 0  1.918929241273175 2.27471131819245 0  3.590183783343969 2.184680610175416 0  1.85683899811842 0.4533569963423589 0  1.173935704088662 0.4636872214645547 0  2.116602160898525 -2.207718541460878 0  4.51821874648995 -1.042568353750147 0  2.721551512787618 -0.1859357475290837 0  5.294921875 2.001953125 0  5.288671874999999 2.670703125 0  2.199940744527116 0.7756512213396931 0  4.090519467638897 1.163401080812838 0  2.298177083333333 2.670581371753247 0  2.484362362207526 -2.687319997637033 0  3.300530569898859 1.207053005217563 0  3.936078051808127 -1.362164062673065 0  5.341218841330105 0.5689885832563615 0  4.226314635599414 0.5638853401248238 0  2.524510956818563 1.635483567726497 0  0.3219546452225031 1.389066019009203 0  3.139061555368706 -0.3133905221155423 0  3.145569907612562 -0.6461828528638952 0  3.701427442033566 -0.2272880199383185 0  1.686782510365738 -1.934662341426927 0  2.427696494631844 1.944064773844184 0  3.901817839425732 1.422433381251312 0  2.356489883772755 -0.2025512972825912 0  4.820757576351118 -0.01647699434507374 0  3.064415631228375 1.809719380809516 0  4.643002705009462 2.69782572459795 0  4.31624250429496 2.728112685900672 0  1.520100694408069 -1.314302747998057 0  3.754559308601717 -0.5375020107416889 0  0.25 -2.0625 0  0.8125 -1.826636904761905 0  4.861738621091127 -0.6367294570749906 0  1.545149590740081 2.015832101819233 0  3.857113324620078 0.04127675193819436 0  0.3162874907704933 -0.864918315983958 0  4.21293081604216 2.352874368135467 0  3.123697687162562 -2.708090473740421 0  3.415275466010259 -2.202892416689829 0  3.601103065320932 -2.727566580522146 0  1.558629964945672 -0.5289921609136927 0  3.324859026263307 -1.198136798699183 0  2.424350759683917 -1.092246517929194 0  2.789248065239812 0.8954629970670158 0  0.8882026075771248 2.364936378889839 0  0.8066140242673685 2.679750706449505 0  4.504454978490482 0.4491616076730165 0  4.26881784709759 -0.009649566552704852 0  1.313479173834523 -2.758675889510418 0  1.120577805361368 -2.179971784090952 0  3.734048623985226 0.8602850349907256 0  3.527828882622877 1.432983527791925 0  1.959527908877504 -1.578124930685265 0  0.7602573574724077 1.220872343399509 0  0.6691217533356228 0.8531987603309893 0  1.877213035764122 -2.564340152892596 0  3.304349402914068 2.552016594979913 0  4.285565286275464 -1.569057178671076 0  4.227521511146333 -1.876903861267543 0  5.34375 1.40625 0  5.71875 1.59375 0  1.56245959534423 0.766197796710638 0  0.2458241530773257 2.4375 0  0.2794123857609179 2.138568368155198 0  5.754175846922674 -2.4375 0  5.720587614239082 -2.138568368155198 0  0.6472458227887359 2.124973059628837 0  5.124241021325378 -2.352544055105642 0  5.189172233440652 -2.675873509996353 0  5.364643151640443 -2.12768524739804 0  2.298896485720138 1.348573610321417 0  0.6008689899200503 -2.745193425346304 0  0.307092513690391 -2.651812055231556 0  0.2683745826107009 -2.363146293324415 0  0.5223214285714285 -2.165178571428571 0  0.5169611136983336 2.740349995819724 0  5.607469108596883 -2.699891746740618 0  2.138439274270545 1.947386893596098 0  1.25507379660067 1.953406658386351 0  4.135759889512124 -2.476847355718572 0  2.548249345531056 -1.538893887888457 0  2.771010284190282 -2.05339728351
[...]
<CellData  Scalars="f_26-2"> 
<DataArray  type="Float64"  Name="f_26-2"  format="ascii">-2.8241283778949379e+215   -2.9733667512919527e+214   -7.5987507070823417e+214   -7.4990539309306958e+215   1.2634129557975024e+216   3.3000721407931615e+215   4.8597226243968643e+215   4.0785975365626729e+215   -7.8949776101494813e+214   -7.0241719522700059e+215   -3.8827375852928533e+215   3.5904049193989221e+214   -1.0176000475531530e+215   3.5691764034763084e+214   9.6168612868847418e+214   -1.5343198142169073e+215   7.3985209042203632e+213   -1.3162138146722836e+215   -1.6959526094613256e+214   -9.0227957570838629e+215   5.4935856738193124e+215   -6.4187616893022298e+214   -7.7173101677313943e+214   8.9096851494433415e+215   4.6650329550673753e+215   -5.5572079193820477e+213   -7.2121838830291659e+215   -5.7064598069757478e+215   1.6742847523640558e+215   -5.0867019588627220e+214   -1.2015827422957145e+215   -1.9877401560222828e+215   8.3140226195642969e+214   -2.1316786153228961e+213   3.5460206650706485e+215   -7.0223646895782129e+214   -1.2841224598312209e+215   -1.1103487788127490e+215   1.3201645157417881e+215   5.4988498329525086e+215   1.7122781292780847e+215   3.5057637602946494e+216   -1.6893145889287207e+215   -6.1088983131410920e+214   -6.9954712430933168e+215   6.8830596365311504e+214   1.2485614708573715e+214   5.6988727334924825e+214   -4.1213383871467130e+214   -1.6055047746235760e+215   -6.0731953685747861e+214   -2.5872482491894390e+214   9.0502277383090370e+215   5.4696362212178833e+215   1.2664135668066085e+214   -2.1363408139061951e+214   -4.2806674235130673e+215   -7.2964951934840359e+215   -4.4012504821170375e+214   5.1469715565849542e+215   -6.8122777457417439e+215   -7.7818176513352077e+215   3.9731196199455795e+214   1.2687224074897199e+215   1.0181174731054911e+215   2.2548455269431777e+214   1.1061703990576064e+216   4.8368730093313215e+215   -5.5761068748016770e+215   -2.3578428382188386e+215   -9.5523066850140139e+214   -2.7112046684292224e+214   2.2045925584783514e+215   2.5195327628037412e+215   -9.7952091625066864e+214   1.8751142028259998e+215   -2.5143017500411504e+215   -2.1138316653529160e+215   -4.0766922681483146e+215   9.1857919639665312e+215   4.4146803365789736e+214   -1.8888994373640675e+215   -4.8302658251039919e+214   -2.0098478617132032e+215   -6.4054068879386433e+214   -2.3138592531177528e+215   4.2061487899628451e+215   5.3515975008594610e+215   -1.6792955514203591e+216   2.2467613178363194e+215   -1.0668838457445493e+215   8.7224965456315630e+214   -6.2388001491974597e+214   3.0628628601990505e+215   -1.9344109774303179e+215   4.7823296077081882e+215   1.4572373058704383e+215   -7.2405803106094491e+215   -4.7834338924668438e+215   1.8276377540043000e+215   3.2878866735865378e+215   -7.6738613220705653e+214   -7.7785209792478821e+215   -5.7749974407010810e+213   5.8136050680141280e+215   -8.5511121135964570e+214   -1.0379787568428983e+215   -1.6432878995456390e+215   -1.9554397899206180e+215   -3.7503371316992070e+215   -7.3703154726336975e+215   -9.3193047172539285e+215   -1.2930339331415318e+215   -2.1957042206342160e+214   1.0542522569406523e+216   -4.0804235879979541e+215   -9.0152117856236425e+215   2.8206827507852599e+215   5.6250584301901914e+215   4.0561132275607807e+213   7.7639609083251707e+214   5.0416664675770305e+214   -3.8961722888127411e+215   -9.7900511454851193e+214   1.7182347066142141e+215   -6.1451232667143203e+214   3.2620874769124915e+215   2.4651820658428242e+214   1.7232972243148536e+215   -7.0152394654471905e+215   1.9968217373895027e+215   1.8143710776343271e+215   -5.7141188070129356e+215   7.2784477378103573e+215   4.2340481996850079e+215   1.0857960681698219e+215   7.4854000015807416e+214   2.4090338506325490e+215   4.2769889898691402e+215   9.9619961595251447e+214   5.5449710369908649e+214   1.5317271017472995e+215   3.1558524105929295e+215   -4.6975236385336505e+214   -1.3322391077681511e+214   -6.9579827842792740e+214   -4.3071655322585521e+215   -2.7377864250315304e+215   2.8880054341613102e+214   9.4561136169924493e+213   -2.6526545081153435e+215   -8.2535354775606377e+214   -9.0423102701238703e+215   8.8781952193845936e+215   -7.7549776483789339e+215   3.4751806172215748e+215   6.3898809709569791e+214   -7.8553217585383112e+215   -2.6605581184088393e+215   1.2749990392171206e+215   -1.5262973977868903e+215   -8.9858976291071302e+214   1.1836159471722978e+215   -2.4618997676694458e+214   -2.1970095475290661e+215   -6.1604209415969535e+213   5.9617424644134920e+215   -5.8041869026854374e+215   4.1316268001830212e+215   -1.3108786348699874e+215   -1.6919759351524472e+215   -2.0091320687699198e+215   -2.8982824356732377e+215   1.0979852899028104e+216   -4.1324402506477349e+214   9.0966085118668212e+214   -3.1617525362141316e+215   -5.6019069245477445e+215   -1.4903616212034721e+215   -4.0800815118838072e+214   -4.2330610106453363e+214   -9.5371796551647378e+214   7.6970538275295160e+215   -6.9853296552995593e+215   -6.9465362064547475e+214   -1.0805009324936670e+215   -1.0683707610784572e+216   6.7502488226194094e+215   1.7781414209383535e+215   -3.1830186503135531e+215   -4.4439559437575872e+214   -2.0052626081112387e+215   -4.4186949962350234e+215   2.2535653324342486e+214   6.2818809340063280e+215   -1.4945857911905731e+215   1.0085906444076355e+215   -1.0426964096407324e+215   1.1032667120407320e+215   -3.0568870884536900e+215   4.6334792876399718e+215   -1.2684906294318130e+215   -2.9562472346249232e+215   3.8881644097072319e+215   7.7641223722642304e+215   -7.5897229602377715e+215   9.4395466985902488e+215   -2.9721335520260979e+215   1.2612912399700097e+216   1.4022210512689639e+216   5.4460950165104394e+215   7.3440488658591708e+214   -2.1811033725204253e+214   -2.1895487730449282e+215   -3.9173829021751986e+215   -8.9423695504599955e+213   -5.4934309378549242e+215   -4.8722235634148906e+215   1.1611519933213762e+215   6.4161350150097503e+214   5.6820234497340485e+215   -7.3137798707891841e+214   -1.5346789888751065e+215   1.2312852724536066e+215   3.3406419066543365e+214   -1.1218046726227625e+215   -4.3425342476636848e+215   2.5504195288953354e+215   -3.1516223331644622e+215   -1.5831936934948684e+215   4.0009324927815956e+214   1.8257133748274007e+214   -3.6094243978562125e+214   -2.5642261448906951e+215   5.5556440565280165e+213   9.8539792502984697e+214   2.2675630291807189e+215   2.1797386269807374e+213   -1.2984120321438040e+215   -2.4521827172928198e+214   -6.3522128474632011e+213   1.1451186895699080e+215   -4.3252899333915937e+215   7.6800647601270958e+214   -1.5158144422861730e+215   1.8495461297740556e+214   -8.7546518271651615e+215   5.9304161639095428e+215   -2.9381473433361321e+215   1.3257217970561671e+215   -4.5980630059882553e+214   2.0540304491526117e+215   -1.5491664824150515e+215   1.4208108879657594e+215   1.6943769625206428e+215   6.1846428894438306e+215   -2.0621865638304575e+215   -2.0308666229830798e+215   4.1947830549252987e+214   -2.6565895465940002e+215   2.0756278772894457e+215   6.0547210545266321e+213   -1.6537195677051460e+214   4.0544674210646582e+215   2.1361893038799357e+215   4.6766414652475269e+214   1.6404260658724909e+215   -2.1747354037135725e+215   -3.6187754655632310e+215   -5.4353100999168247e+214   2.6959243242257242e+215   4.8467385764338630e+215   -5.9371697024690640e+215   2.1933606854596405e+215   4.8088887252504199e+214   -2.5149838553952835e+215   -2.6989456997474433e+215   4.7480410990742819e+215   -4.0673538814870860e+215   -4.3884928640411604e+214   -2.1670528975747313e+215   -3.8194641182518281e+215   2.8605910172552687e+214   2.6305779159000220e+215   -1.4406016120410183e+215   -2.5628153295105162e+215   4.4466975284561043e+215   -6.2929611519666824e+214   -2.1621594781068542e+215   -1.2909003416144320e+215   5.9367549181702837e+215   6.6729713788798081e+215   5.7330771106675795e+215   3.8778565092739732e+215   -3.4194727955936661e+214   -5.4457528105715039e+215   2.1118757997241562e+215   -3.1408982288275092e+215   -8.0990289829701153e+215   -1.1179167396481596e+215   7.5021255590084155e+214   1.4133473786740065e+215   -7.2359686824680645e+214   -2.7339453402183239e+214   -5.3678654160046684e+214   4.7393606131325660e+215   9.8892592497967452e+214   -5.9836785524597966e+213   5.4955808233619018e+214   -1.7505072895888352e+216   1.1831924023833327e+216   8.8918646222646871e+215   4.1803726840691258e+215   1.4815995409081197e+216   -3.2035713192880825e+215   -1.3582978233752760e+215   2.6161049964161930e+215   -1.1247193587292070e+214   -1.3721558704411294e+215   1.8851057333818734e+215   -7.6976900987842356e+214   -9.7904853126952033e+213   -1.1483271565776512e+215   -2.6567996966428609e+215   -1.3643513243984946e+215   -2.6149202752286795e+215   -3.3945043672742024e+214   -1.2960746075836566e+215   4.3748803112381910e+215   -9.3380009605955428e+215   -2.6789482963803569e+215   -2.5441619467117701e+213   -3.6456180660606746e+213   4.9456420721488519e+214   7.7354807826617422e+215   1.0758604763565374e+216   5.0695679623334874e+214   -3.3369152034101501e+215   -2.7125456786997404e+214   3.2174481817516541e+215   -4.4966212805828418e+214   1.4977306939770030e+215   1.3083458176879473e+215   4.5405593991083153e+213   1.4045085137630753e+215   -3.5797570941465558e+215   2.2937564571649146e+215   -3.0757961430631512e+214   1.6889552594069044e+215   -2.8277503788023253e+215   -5.1947403109953585e+214   5.8891471612431711e+213   9.7739776436194918e+214   -3.6389778511433510e+215   1.2983331600531297e+215   1.8205817736253401e+215   3.7471049891493816e+215   2.0715188421246977e+215   -9.3167731556504476e+215   5.2581183467822167e+214   2.4079068574538695e+214   9.0429828138916149e+214   -1.7772636467808012e+215   5.4395391099748869e+215   -5.9016203068522891e+215   9.7781914110161166e+214   -9.9162445808540100e+215   4.4007589859746393e+214   -5.1511160066327070e+214   -2.2663417745445613e+215   3.5229621934658115e+215   -1.6295714931653332e+215   -1.0200022410086139e+215   -2.3957182707684612e+214   2.8975742960693013e+215   4.7845276548306102e+214   2.5743323188354887e+213   -3.8353855297563297e+215   -1.5703542687205202e+214   -3.1498339722610867e+215   -3.9330168741479558e+215   6.9079079294316512e+215   -1.8144041932035053e+215   -5.0024802636422364e+215   1.8366744035984121e+216   5.2782622820539873e+214   -4.0700086869909309e+215   -3.6618284284190048e+215   2.1363069570997688e+215   -3.4537290436395001e+215   -2.3875741769735525e+215   -7.2238111554939374e+214   -2.2641309837709916e+215   4.5322517675693117e+214   -6.7171702662159841e+215   -2.1215677069811864e+215   8.2851196924018675e+214   -1.8872998079606317e+215   1.7120029867476611e+215   2.8787318352109030e+215   -4.7240372999953963e+215   -1.0744485864795553e+215   -5.4258875314826982e+215   -7.5338396112976637e+215   -1.7072746500372480e+215   2.0106539343793937e+215   7.2430312862718674e+214   -8.7346057927974940e+214   4.4086427495727949e+214   1.6999021410809640e+215   1.5424098496240712e+216   1.6195359669608941e+216   5.6034288215239602e+214   9.2440886366460979e+215   2.4530846567881010e+214   2.0381567301698450e+214   -4.1962731208107125e+215   -4.1850932022181959e+214   -5.4834724518830583e+215   -1.3141978506721739e+215   -9.6581132562918899e+215   6.3470618043634267e+215   -1.2910506753251374e+215   3.1224557931280084e+215   -7.0100485400540601e+215   -3.4457285212335574e+215   -1.3165634843094007e+215   3.3411382221801001e+215   -3.0486766339915864e+215   -5.2619680875693174e+215   5.4674504461982166e+215   1.5788002208921135e+215   -1.6433173513866981e+215   -3.8229980237762930e+215   1.5303639393927439e+215   -7.3920322573128331e+214   -4.0140915289441842e+215   -3.7671503419272724e+215   8.5519098344599329e+214   4.1044379857308134e+214   4.5667967242022430e+214   1.7954231824426856e+215   -2.4987803854426435e+216   -2.2393422922580379e+215   1.2255367017739456e+216   5.0129221596112412e+215   2.1763138225677962e+215   2.2918803092074549e+215   3.4233568896000637e+215   2.4299840125371053e+215   -8.6118764930055241e+215   3.3000066829913335e+215   2.3396249793959758e+215   9.9161295750390772e+214   2.0321950083630757e+214   -1.0169158059210175e+216   3.9198698379281402e+215   -1.5625377941946184e+216   5.5472241458522533e+215   -9.0959615377707841e+212   2.7188982707768007e+215   -1.2889145379795573e+215   9.6247178669111883e+214   -6.8721525351962297e+214   -1.0576863851039993e+216   1.4768567217730147e+216   1.2358078147211620e+216   3.7909290191051839e+215   1.4974151802328616e+215   -4.8029841426310291e+214   1.2097745040855145e+215   1.4877399304784972e+216   3.7680694907607184e+215   -4.5293782793563809e+215   -7.5007524368481500e+215   6.5025904712411031e+215   -2.3690732250955056e+215   1.0300246880240498e+215   -1.3695919574460141e+215   1.0046136630638559e+215   -6.2464349367748098e+214   3.4348365840086988e+215   1.1749813537046750e+215   -6.1793152946488289e+214   2.4512689648779703e+215   -1.7682888914231714e+214   1.8190509976632482e+215   -1.7430686008283857e+215   -1.8086386156264156e+215   2.2840809896171596e+215   -4.5662181682749843e+215   -5.1152653646133317e+215   6.2155545949095590e+214   -2.5941037218070264e+216   -3.5105094850205574e+215   1.4028041980432493e+215   -1.7823336761757266e+216   1.5997503267695638e+215   -4.1037358900996427e+215   2.3293951339198697e+216   -2.0068716078949953e+216   -1.4404005612109526e+216   1.8997537459440702e+215   -7.7864225375751805e+214   6.7277402517898674e+215   -3.0675732847354193e+215   6.6560298519881540e+214   -8.9711643187146006e+215   -1.0346624388060306e+216   2.5666694628871075e+215   7.4701422869530848e+214   6.8382074399632129e+214   -4.0648992344777296e+214   2.5732738728635032e+215   1.0596903731116505e+216   3.4794944739172250e+215   -2.4665862256571319e+215   -6.0553858498268652e+214   7.0400237406058665e+214   3.1824982294093059e+214   -4.3235855082657221e+214   6.3136390480617688e+215   -1.2873477057696547e+216   -1.5441523551043563e+215   8.3355628116818115e+215   -2.4846797345458582e+215   -4.3438967511006497e+214   1.0896645187881684e+216   -8.9557128845539003e+214   -1.8664358348106371e+215   -1.9116556268408895e+216   -4.0362465745443752e+215   -4.3753853892023786e+215   -3.8964445792424783e+215   -4.8572621349481135e+215   4.6496629732429153e+215   -2.9046939971083262e+215   1.3680363255880744e+216   -9.2391983430893626e+215   1.0566927716518720e+215   -1.5537259782053481e+215   1.1436532638636767e+215   4.5604758956631396e+214   -3.7658776031898941e+215   -2.5724077567174612e+215   -1.0588166349186526e+215   8.7611632178613139e+215   -5.1478731962078788e+215   -2.6807693373136890e+214   -1.4680627663810963e+215   5.6609037584131789e+214   2.3742028352526107e+214   2.9263989012536831e+215   -9.7097488140745444e+214   2.1083194770103507e+215   -9.6287234390552498e+214   1.0763911180166556e+216   -1.2289693175467757e+216   -1.0555257992754608e+215   -1.6285670305360115e+215   3.0632137728702542e+214   1.8217155135906388e+214   3.3063549182278271e+215   1.5270961230121903e+215   -4.1935857790131726e+215   3.3516320046206946e+215   1.6989363637723984e+215   -2.1326501028984936e+215   -3.1644564845995661e+215   -3.5489320792034656e+214   5.6603039308925483e+215   3.0261473075534695e+215   -2.5498895855160260e+214   2.7822344952548680e+215   8.6722408402532741e+214   3.7499647955626812e+214   -1.6947565093800958e+215   1.6119030366364639e+215   -2.2457230025464122e+215   -3.0408735740726871e+215   -1.3126093580560259e+215   -2.4076815171505658e+215   -6.0331897087274949e+215   1.7401600093201351e+216   -3.0113818521862518e+214   8.0508689891094014e+214   -6.9181090391617316e+213   -1.4806659184747113e+215   -5.8826276049865958e+215   9.9841944980099709e+214   -1.1914413234730158e+212   -6.7254760126987039e+214   2.6011719836470348e+215   1.4684803683023670e+213   7.0574336951070130e+214   9.0951239037110648e+214   5.2705017703026485e+215   1.5372501606463602e+216   3.8021111744282214e+214   3.2841605623730598e+215   4.4606484637270961e+214   2.7968528539610522e+214   -4.3095674364960898e+215   -1.6796510784757329e+215   -4.4914230007338061e+215   2.8063165169647421e+215   -2.3493385503159988e+215   -9.2511745208586045e+214   1.0847651552526901e+216   -3.2287393732667426e+215   -1.5167804646405948e+215   1.3524851727921930e+215   -2.0280006535524764e+214   3.2051490593751440e+215   9.4862426135137033e+214   1.8497722837800592e+215   -4.8588487901012600e+214   -1.2395781030663346e+215   1.9418561019694070e+216   2.2654744536758320e+215   -1.6855611273821713e+215   -5.7253787894643711e+215   2.1166188718184022e+215   -5.1217019240720820e+214   2.6010932768930936e+214   2.0598181090998678e+213   3.3037563372728371e+214   5.5995193968239739e+215   -5.7956541975817509e+215   6.1433062906166310e+214   2.8000872740139341e+214   2.8782954326087673e+214   4.9035841618200990e+215   -1.6430521992773043e+216   -5.5866263972940600e+215   -1.9506528970587992e+216   -3.0179793089102615e+215   -4.9628611720081880e+215   -1.9741471535665462e+215   -9.5982976116592380e+215   4.7386547689444393e+215   2.5680250162704408e+215   7.1957409414839347e+215   2.1989796663611227e+215   -5.3849968329053270e+214   -2.2127301594658554e+215   1.8978194154806651e+216   -3.7682753594626285e+215   -7.9288967115366436e+214   -2.2297094038031295e+215   -1.6050802289126814e+215   3.0619353957664362e+214   1.3644810874855885e+215   1.8092536046177701e+215   -2.8123091879046531e+215   -4.0001539525805720e+215   2.7077216860868852e+214   -1.6004886026072822e+215   2.2549187405523918e+214   -3.4988058885286867e+215   -1.5667361512660415e+214   -6.5825208025626908e+214   2.7492761175071616e+215   -5.6170258633350575e+213   -1.4876120599902655e+214   -5.1683220679135117e+214   2.5764522984667980e+215   5.2143058181261583e+214   7.9804970583053893e+214   1.9350742148065738e+215   5.4294459537433949e+213   -3.5616625861663340e+215   6.2910849337839318e+215   3.2233946901590456e+214   -9.0627837420260039e+213   5.1970836589025445e+215   1.0094216797282189e+216   4.7153802027918870e+215   2.3270507173705580e+215   7.7684455153216268e+214   3.2362743267103933e+215   1.7181355546942504e+215   -2.5116854393666343e+215   -1.5250624577910004e+215   -2.1455465386806557e+215   7.1600351858963387e+215   -1.4818137432484836e+215   5.1186085076034564e+215   4.6142884514287820e+215   -1.7063400865537822e+213   -2.0266310829431769e+215   -1.0451504566952257e+215   -3.9783813291887965e+214   9.3378124256949526e+214   -5.3409145608655000e+215   2.6293387377448593e+214   -4.1386754980806365e+215   5.2927562705301724e+215   -3.3663327594371590e+213   2.3551477002735621e+215   -1.0925052492784567e+215   7.1690441555346370e+214   1.8760667419784572e+216   8.4844335706056929e+215   -5.7488629801075741e+215   -3.6607067120305256e+215   -6.4011927882053621e+215   2.3459196899801904e+215   8.9611990241057016e+214   -1.1719533825439102e+215   1.3427379522522251e+215   -2.7117435203934557e+214   3.7250966474343529e+215   -2.8145292219976142e+214   -3.5207298892310926e+215   7.7636280699489722e+214   6.8084751548382455e+215   4.8738219193775772e+215   -2.8669393963767624e+215   -1.8661114479864416e+215   -2.6928524353312779e+213   -1.4165430638897826e+214   -8.3965030943517167e+214   3.0340008571110031e+215   4.7259070186088010e+215   3.0483917244442465e+213   -4.4069815351646522e+215   5.5762128165431900e+215   -3.0046540722168815e+213   6.3873184334917404e+214   2.9244799029339683e+216   -7.1181421021349069e+215   5.8693064194619280e+215   2.5351546965045168e+215   -5.4818681948548096e+215   2.0381343419532845e+214   -1.6104829175286498e+215   1.1359510235791074e+215   -2.3498030963644485e+215   9.4956486501694069e+214   7.7760657002993759e+214   1.5396346139314952e+215   -1.0535239381123949e+216   -7.5053716904027412e+214   5.5346701285129756e+214   6.8909238848572167e+214   -2.1354113183035576e+214   -1.1711116205951806e+214   2.7136296420481532e+215   4.0686083267117519e+215   1.3175636819609628e+216