<?xml version="1.0"?>
<VTKFile type="UnstructuredGrid"  version="0.1"  >
<UnstructuredGrid>
<Piece  NumberOfPoints="2534" NumberOfCells="4892">
<Points>
<DataArray  type="Float64"  NumberOfComponents="3"  format="ascii">0 3 0  0 -3 0  6 -3 0  6 3 0  3 -3 0  6 0 0  3 3 0  0 0 0  3 0 0  0 -1.5 0  1.5 -3 0  1.5 3 0  0 1.5 0  6 -1.5 0  4.5 -3 0  6 1.5 0  4.5 3 0  4.25 -1.25 0  1.75 1.25 0  2.25 -1.5 0  4.5 0.75 0  1.541666666666667 -0.2083333333333333 0  3.219827586206896 1.521551724137931 0  1.125 -1.875 0  4.875 1.875 0  0.8702651515151515 0.631628787878788 0  2.25 2.214285714285714 0  3.316176470588236 -1.904411764705882 0  5.214285714285714 -0.75 0  5.03125 -2.03125 0  0.96875 2.03125 0  4.041666666666667 -0.2083333333333333 0  0.8205128205128206 -0.9134615384615387 0  3.942582294752138 2.189194098250713 0  3.061487638533674 -0.968243819266837 0  2.192708333333333 0.4427083333333334 0  4.157850026972511 -2.182329047049442 0  2.331456616463011 -0.5285296485744057 0  3.654761904761905 0.5654761904761902 0  5.25 1.125 0  2.563673341677096 -2.280663329161452 0  5.126674107142857 0.1283482142857142 0  0.75 -3 0  0 -2.25 0  6 2.25 0  5.25 3 0  0.7680051888903191 -0.1384245958639337 0  1.617229471026718 -1.006949429867069 0  4.218940341429579 1.468686552856807 0  3.75 -3 0  2.25 -3 0  0.75 3 0  5.25 -3 0  6 -0.75 0  0 -0.75 0  0 0.75 0  2.25 3 0  6 -2.25 0  0 2.25 0  3.75 3 0  6 0.75 0  1.787573018358365 -2.279142327213878 0  3.195025188237337 2.273430909158844 0  2.528159645294386 1.151699106559287 0  1.041598427383826 1.322848427383826 0  1.520951704545454 0.4634232954545453 0  1.580357142857143 2.325892857142857 0  4.919642857142857 -1.361607142857143 0  4.54981623521892 -0.6483700862895494 0  2.99317863826574 0.6697091957925523 0  3.450169349029507 -0.4574865881858001 0  3.605016126014028 -1.323102984840902 0  2.745144658907412 1.882241931337371 0  0.4898065586600511 1.092777516238393 0  0.5 -1.875 0  1.217028489597945 -2.469323836800685 0  1.659912685567181 -1.604738056701542 0  5.4375 1.6875 0  5.34375 2.34375 0  4.52741779500503 2.384139265001677 0  3.375 -2.514804579549941 0  0.5446428571428571 -2.455357142857143 0  2.766554087216865 -1.745795909102064 0  4.525516559010988 0.1490283123570637 0  3.87554132162248 -0.8280516069565407 0  4.53622906132958 -1.76963146596888 0  0.4243951612903226 1.875 0  0.554851858345021 2.446861709948876 0  5.575604838709677 -1.875 0  5.445148141654979 -2.446861709948876 0  4.875 -2.575604838709677 0  1.440573466105381 1.721823466105381 0  2.193519495405082 1.631799415080963 0  5.472630128027442 -1.330813078900983 0  4.750126894286386 1.343813447143193 0  5.607142857142857 -0.375 0  2.625 2.607142857142857 0  0.3921763197810531 0.375 0  5.60901753622775 0.3750000000000001 0  1.125 2.613454943235572 0  3.701856738980915 1.163867513386733 0  3.736112850688509 1.696746876851408 0  3.519183195491339 0.06065128742606851 0  3.973620778217027 -1.693401606145563 0  0.8125 -1.444978632478633 0  1.256657745408029 -0.6381828923025001 0  0 -1.125 0  5.019997778514942 0.6475044429701156 0  4.125 3 0  1.285569332703024 0.8955310332120207 0  0 -0.375 0  0.4638922275641027 -0.5625 0  2.056635259780241 -0.07226025978024064 0  2.130475508371123 -1.000827820434028 0  2.677484372338113 -1.267299126394495 0  2.848680878891876 -0.4956836878192376 0  4.937901885089369 -0.3340245904575954 0  4.393563081308854 1.919544166973803 0  4.053859126323572 0.2813938488760716 0  1.181051704329518 0.1167440895674965 0  1.971354166666667 2.607142857142857 0  4.875 3 0  2.519350561152006 0.08093582719875507 0  3.139443301924015 -1.442524927271905 0  6 2.625 0  1.849169256239503 1.945480934753207 0  1.867196483071171 0.7892354369530077 0  1.192506522009051 -1.184888428863342 0  3.375 3 0  3.603234392481833 2.536866305538572 0  3.846752908916648 -2.537707634073423 0  2.014339897513945 -1.886932065281681 0  4.038392037966526 0.8363324773944992 0  4.421242701722609 -2.552534687860327 0  3.715389848650903 -2.108856956172843 0  2.985668138820625 1.127780908772207 0  0.4500794934449803 -1.173696061598557 0  3.366760888116476 0.8891914618875614 0  1.869163043700093 -0.6107175804171328 0  2.175114838273305 -2.53928723780967 0  3.014417665538299 -2.241523065744933 0  2.625 -3 0  2.819968145332426 -2.617202329573456 0  5.625 1.3125 0  5.563263538826679 0.814027077653358 0  5.625 3 0  2.550041671270923 0.7074928970804664 0  4.014583091741168 2.59891853892166 0  0.6440729668673318 1.499523832583132 0  5.219449799568244 -1.660557808485412 0  3.474012636702472 -0.9300738420779746 0  0.8125 -2.142857142857143 0  1.875 -3 0  4.945010515846405 2.554471797033147 0  2.611388969012422 -0.8478354915063726 0  3.223746055611014 0.3371683159691745 0  4.843939757110898 -0.9483610977948225 0  4.66556954816842 -2.220888354477256 0  4.125 -3 0  4.448108395110625 -0.2524000502731018 0  5.63671875 2.05078125 0  2.822484133964224 1.491327727709286 0  3.378213092764193 1.903125093887009 0  5.607142857142858 -0.9231200445788541 0  2.12639693023183 1.100450516019641 0  5.625 -3 0  0.375 3 0  0 2.625 0  6 -2.625 0  0.3931307155906299 -0.01856779822591927 0  0.8549199714190221 -0.5218333744252657 0  0.7651723094668359 0.253768144801553 0  1.421989550604507 -2.133299471886336 0  1.582611957351803 -2.615166692128227 0  4.420331038793115 1.133144382396504 0  0.375 -3 0  0 -2.625 0  5.078156723571596 1.54697017071479 0  1.877250715260938 -1.288801575378032 0  2.409169073010687 -1.916147168931784 0  1.146151077069952 -0.268000681695328 0  1.726784828652036 0.1335728643263411 0  2.745628549924675 0.3838821021397905 0  3.011490900297165 2.613625569196862 0  5.62463365164608 -4.137655439684362e-05 0  1.875 3 0  1.125 3 0  6 0.375 0  2.625 3 0  6 -1.125 0  6 -0.375 0  4.875 -3 0  6 -1.875 0  3.375 -3 0  1.125 -3 0  0 -1.875 0  0 0.375 0  0 1.125 0  0 1.875 0  6 1.125 0  6 1.875 0  4.813017731148975 0.9677363687196439 0  2.807371623148303 2.264962208227767 0  0.3692953377255688 0.7436406761680247 0  5.615625 2.615625 0  0.9395725521479794 0.9812935874921043 0  1.390920759130215 1.238984550166515 0  0.9588795022085095 1.672288500195331 0  0.87712392565124 -2.641031728267331 0  0.3665732993114588 -1.532068934251388 0  1.841944504733106 1.591700334213738 0  4.832970185136452 0.3385359233091246 0  4.169083540479082 -0.5746148619765254 0  5.281697083409333 -0.2046640461936881 0  4.072845380968044 1.784516523483641 0  1.293029195762321 -1.543079049035419 0  4.878733886054284 -1.720697370582964 0  3.609167475697567 -1.687579152754035 0  4.836981942878573 2.222259978217028 0  4.204938267037067 -0.9128589669335569 0  5.183079748175263 -1.111742407358677 0  1.469404041858679 2.654509729682302 0  1.22880920402559 2.273525645756405 0  4.566761045622856 -1.414165869120005 0  4.531680518427715 1.606803989975667 0  1.918929241273175 2.27471131819245 0  3.590183783343969 2.184680610175416 0  1.85683899811842 0.4533569963423589 0  1.173935704088662 0.4636872214645547 0  2.116602160898525 -2.207718541460878 0  4.51821874648995 -1.042568353750147 0  2.721551512787618 -0.1859357475290837 0  5.294921875 2.001953125 0  5.288671874999999 2.670703125 0  2.199940744527116 0.7756512213396931 0  4.090519467638897 1.163401080812838 0  2.298177083333333 2.670581371753247 0  2.484362362207526 -2.687319997637033 0  3.300530569898859 1.207053005217563 0  3.936078051808127 -1.362164062673065 0  5.341218841330105 0.5689885832563615 0  4.226314635599414 0.5638853401248238 0  2.524510956818563 1.635483567726497 0  0.3219546452225031 1.389066019009203 0  3.139061555368706 -0.3133905221155423 0  3.145569907612562 -0.6461828528638952 0  3.701427442033566 -0.2272880199383185 0  1.686782510365738 -1.934662341426927 0  2.427696494631844 1.944064773844184 0  3.901817839425732 1.422433381251312 0  2.356489883772755 -0.2025512972825912 0  4.820757576351118 -0.01647699434507374 0  3.064415631228375 1.809719380809516 0  4.643002705009462 2.69782572459795 0  4.31624250429496 2.728112685900672 0  1.520100694408069 -1.314302747998057 0  3.754559308601717 -0.5375020107416889 0  0.25 -2.0625 0  0.8125 -1.826636904761905 0  4.861738621091127 -0.6367294570749906 0  1.545149590740081 2.015832101819233 0  3.857113324620078 0.04127675193819436 0  0.3162874907704933 -0.864918315983958 0  4.21293081604216 2.352874368135467 0  3.123697687162562 -2.708090473740421 0  3.415275466010259 -2.202892416689829 0  3.601103065320932 -2.727566580522146 0  1.558629964945672 -0.5289921609136927 0  3.324859026263307 -1.198136798699183 0  2.424350759683917 -1.092246517929194 0  2.789248065239812 0.8954629970670158 0  0.8882026075771248 2.364936378889839 0  0.8066140242673685 2.679750706449505 0  4.504454978490482 0.4491616076730165 0  4.26881784709759 -0.009649566552704852 0  1.313479173834523 -2.758675889510418 0  1.120577805361368 -2.179971784090952 0  3.734048623985226 0.8602850349907256 0  3.527828882622877 1.432983527791925 0  1.959527908877504 -1.578124930685265 0  0.7602573574724077 1.220872343399509 0  0.6691217533356228 0.8531987603309893 0  1.877213035764122 -2.564340152892596 0  3.304349402914068 2.552016594979913 0  4.285565286275464 -1.569057178671076 0  4.227521511146333 -1.876903861267543 0  5.34375 1.40625 0  5.71875 1.59375 0  1.56245959534423 0.766197796710638 0  0.2458241530773257 2.4375 0  0.2794123857609179 2.138568368155198 0  5.754175846922674 -2.4375 0  5.720587614239082 -2.138568368155198 0  0.6472458227887359 2.124973059628837 0  5.124241021325378 -2.352544055105642 0  5.189172233440652 -2.675873509996353 0  5.364643151640443 -2.12768524739804 0  2.298896485720138 1.348573610321417 0  0.6008689899200503 -2.745193425346304 0  0.307092513690391 -2.651812055231556 0  0.2683745826107009 -2.363146293324415 0  0.5223214285714285 -2.165178571428571 0  0.5169611136983336 2.740349995819724 0  5.607469108596883 -2.699891746740618 0  2.138439274270545 1.947386893596098 0  1.25507379660067 1.953406658386351 0  4.135759889512124 -2.476847355718572 0  2.548249345531056 -1.538893887888457 0  2.771010284190282 -2.05339728351
[...]
<CellData  Scalars="f_26-2"> 
<DataArray  type="Float64"  Name="f_26-2"  format="ascii">-1.1290681313680829e+33   -1.3967108027713797e+33   -2.0764149556552771e+33   -1.8003605412189834e+33   -1.9887542583706990e+33   -3.6462581214054103e+33   -1.3151354882247059e+33   -1.7045268005269013e+32   -1.4220524403985279e+32   -1.1177475037688465e+33   -9.7848005217442927e+32   -1.9787916382694526e+33   -7.3267375964767083e+32   -2.4115113413321343e+33   -2.0793604242811057e+32   -1.4890247543081404e+33   -2.0024820784384435e+33   -4.5631756749196204e+31   -1.4686956341010539e+33   -8.3347522685056965e+32   -2.5037266096345027e+33   -5.9225334307076499e+32   -1.5987726820085608e+33   -8.3033091403692143e+32   -1.1386537101233773e+33   -1.4750702659597706e+33   -2.6336447031563392e+33   -9.2260316322129637e+32   -9.0208741021852957e+32   -1.3644196145685120e+33   -6.5769278662940272e+32   -6.9530115610161046e+32   -1.1631606239579315e+33   -1.1130462007779554e+33   -1.2009417999195604e+33   -1.3456607365104231e+33   -1.6691465315652319e+33   3.2570905241808883e+32   -2.0719026408665628e+33   -1.4347525014100844e+33   -5.5680835069527488e+32   -1.2874348199409807e+33   -9.3894718483569577e+32   4.4554821219103075e+32   -4.7011819045773916e+33   -2.2264894213135496e+33   -2.8240079395561451e+33   -7.3086877112092733e+32   -1.8052642325196211e+33   2.4952448473472222e+31   -1.9554668366590454e+33   -1.3798431627223800e+33   -7.0115059785066212e+32   -1.5337247685755058e+33   -1.2407650758203637e+33   -1.3483150249559091e+33   -2.0810871318027283e+33   -1.5322062272485040e+33   -2.0275128573604864e+32   -2.0186162308690985e+33   -8.6260265968075292e+32   -1.3209540401869769e+33   -2.0237781520712269e+33   -1.2049965476593320e+33   -3.9128213159910881e+32   -1.4739223769615948e+33   -2.1016510819380935e+33   -2.8789161597742458e+32   -5.9393893469486137e+32   -1.5663581719319099e+33   -8.3108170351631965e+32   -6.7441230120499855e+31   -3.7551597442485247e+32   -1.2485209204562740e+33   -1.0401478315792881e+33   -1.5340692484757788e+32   -6.7390595034628524e+32   -1.2836467196369378e+33   -2.3480754607145238e+33   -3.7341940664717039e+32   -7.5388680728706373e+32   -1.0894270198255140e+33   -1.5301972009876078e+33   -2.4714721012023040e+33   -9.1689754471527903e+32   -1.4315437081055740e+33   -4.8186140977716937e+32   -1.1923615542493339e+33   -1.1638607168087146e+33   -1.2567517975340089e+33   -1.4672848531969098e+33   -1.3942423326379213e+33   -2.5685056518053582e+33   -3.0475610071457816e+32   2.5178633122960203e+32   -2.4150040377780942e+33   -1.0940092799856146e+32   -9.8066840581798355e+32   -1.1078141323867972e+33   -7.6063468778583955e+32   -7.2101579254830523e+32   -2.5817419524729333e+32   -7.7694970197278446e+32   -6.0739916551602003e+32   -1.3433557894960046e+33   -2.2984328736230142e+33   -1.8896243659162749e+33   -9.7646869375765017e+32   -1.9472189099357800e+32   -8.4859526217913211e+32   -9.2415432326839873e+32   -6.0181819956388969e+32   -6.5159837104900053e+32   -1.0009047320864566e+33   -1.1575340955398296e+33   -2.0905105376598279e+33   -3.1755528997031866e+33   -5.9934642319934459e+32   -7.0450353107866483e+32   -2.9553337630899357e+33   -1.8205587309871954e+32   -1.7038406610084681e+33   -1.6453651484313009e+33   -4.9305507228574402e+32   -1.3131997593796127e+33   -6.7371087413571402e+32   -3.9936670341862127e+33   -1.2361062669861181e+33   -2.8836353771388247e+33   -6.5920439930307291e+32   -1.0286795291688612e+33   -1.3706486792704167e+33   -1.3029324865774710e+33   -3.8570506678839018e+32   -1.0765332057244981e+32   -6.2796548046818744e+32   -1.4623411276957264e+33   -3.0941566176717392e+33   -4.1691045970199200e+32   -1.7302116029096179e+33   -8.8548910615658165e+32   -8.2055599133140735e+32   -2.2873305706105221e+33   -2.4137661170847720e+33   -2.9200502844593915e+32   -7.0498870006648929e+33   -1.5686307083661499e+32   -1.7929996663594811e+33   -1.1398634685328744e+33   -3.7915068678286336e+32   -8.4112324281448782e+32   -1.0538624561987407e+33   -1.1539094297868207e+33   -1.5328249900281791e+33   -1.3429271877494545e+33   -8.9509980736550614e+32   -1.4684380331646670e+33   1.4946359660285485e+32   -2.5706675475744168e+33   -5.6823049567821986e+32   -2.4079636280974944e+33   -1.0540489709182811e+33   -1.3152539700442372e+33   -2.3061749240685510e+33   -6.2691118563731365e+32   -2.2876771665685977e+33   -1.1011008314855428e+33   -1.9279339510865367e+33   -1.0708374522557540e+33   -1.0802371535935651e+33   -2.9084224743988998e+32   -4.4435541965963652e+32   -1.3553108465803002e+33   -3.7678119939125072e+32   -9.7945312347989079e+32   -3.3820197625199562e+33   -1.1695455436963984e+33   -8.5867935206044045e+32   -1.5022003191661095e+33   -5.2448320045999512e+32   -6.8555685818555905e+32   -1.9431418271076794e+32   -5.1934949635356615e+32   -8.5744266034513436e+32   -3.1423717775634661e+33   -2.7805998640797032e+33   -1.6253573803294196e+33   -1.4349394727591312e+33   1.1225892310682564e+32   -8.6970244970646372e+32   -3.9474399681678316e+32   -1.4876307512270408e+33   -2.6663408766516177e+32   -1.1894211010961030e+33   -2.3087516899645788e+32   -2.2440110631591338e+33   -1.8338291136904723e+33   -1.5186117223611258e+33   -5.1205528222437780e+32   -6.7560357416025738e+32   -1.3154250242822138e+32   -1.4377535169789342e+33   -1.7199073482083836e+33   -1.2123975705663182e+33   -1.6837836464246111e+33   -9.4455124588304147e+32   -3.7947462694622647e+32   -2.5224769239642357e+33   -1.0847308599033265e+33   -1.5953977590755343e+33   1.6956113870884435e+32   -6.8235827079230270e+32   -1.5022277081053488e+33   -2.1195006330396783e+32   -2.7738879723594197e+33   -1.5587845834449339e+33   -2.1612144625724886e+33   -8.5133351735025787e+32   -6.7030635745572590e+32   -2.9399619023210575e+33   -5.3151706248953402e+32   -1.6005345941236412e+33   -2.6543307979899983e+33   -1.2237192294022730e+33   -1.7063337469783610e+33   -1.7097616550326611e+33   -2.2546200163770583e+32   -5.9649560889583935e+32   3.5983042723744282e+32   -9.0477611473109354e+32   2.4689723754620646e+31   -2.4754359962302470e+32   -6.6062135071294713e+32   -8.0953674102203279e+32   -2.0130396784148849e+33   -1.9788964472004251e+33   -1.3844068551457434e+33   -8.1606564931181642e+32   -5.1526190435055320e+32   -5.1325255027030937e+32   -2.7192003073564395e+32   -1.2602063265174891e+33   -1.8290669199593408e+33   -6.0555236402109076e+32   -2.2975537278623031e+33   -8.2739735473211063e+32   -2.3598595546817091e+33   -7.6677232724208038e+32   -4.1788807561450916e+32   1.8276569084034737e+32   -3.8857810742370886e+32   -4.2520385722733070e+32   -1.5465831923633743e+33   -1.0794575971018499e+33   -6.7780489603636921e+32   -4.9435771143524878e+32   -6.2376326405865883e+32   -8.3543698273111409e+32   2.8007521692838378e+32   -9.5761686899007494e+32   -5.5852127583207762e+32   -2.4082934163610364e+33   -8.3213483999773237e+32   -1.2330724362994634e+33   -1.0127798838925571e+33   -1.5213644226519506e+33   -5.3635627999102400e+32   -8.9488458305033207e+32   -1.9400949577692090e+33   -8.4354645845878550e+31   -1.1869977119293063e+33   -1.8477593094520538e+33   -2.2237880229765854e+33   -1.8972826256345717e+33   -9.4764146411939998e+31   -3.8289947496897745e+32   -1.9127132597550555e+32   -1.5617821786241355e+33   -8.9003280072390192e+32   -4.1540453792781254e+32   -1.1463735925657909e+33   -2.1934283513375370e+32   -1.6745563262072242e+33   -8.8472117279757590e+32   -4.7770866265283912e+32   -3.6232116101660251e+32   -1.2854535564938910e+33   -1.2633604256105203e+33   -1.0042665180156417e+33   1.0795416780018616e+32   -1.4139699163007488e+33   -1.5506407282910492e+33   1.5295083082464394e+31   -5.1341738105391589e+32   -6.4992559082254713e+32   -1.1643837871032042e+33   -1.1543989503965839e+33   -2.6156475660784185e+32   -1.3505534249841519e+33   -3.7544611514953896e+33   -1.9565425716898178e+33   -1.1066744483852161e+33   -1.2508065252457221e+33   -7.8201250640048229e+32   -4.0560540325643401e+32   -5.5620605854794046e+32   -2.4159492866475751e+33   -2.5220823281225500e+32   -9.0606520495067035e+32   -6.0602126680458481e+32   -7.6467122351438561e+32   -9.3313555217752332e+32   -1.8302406620326689e+33   -8.9697285439815087e+32   -1.1354490809475287e+33   -8.1296436938224442e+32   -1.0449782458924127e+33   -1.2811026209889185e+33   -8.1822042432405602e+32   -1.9552995793951854e+33   -2.0664958369214435e+33   -6.2526989955228047e+32   -1.0790474488706347e+33   -1.8084085673362529e+33   -7.6670158454656423e+32   -1.0605620009114340e+33   -1.0838596819249471e+33   -1.6220629424643919e+33   -1.5040427635382200e+33   1.0969033133342865e+32   -1.5011913018353970e+33   -1.0246923812611962e+33   -1.5621108893434477e+33   -1.8615458066645468e+33   -1.0671473175747313e+33   -1.6544442551709434e+33   -5.2579416406264486e+32   -4.4232791175064693e+32   -9.4323303196769764e+32   -1.3686626490796377e+33   -3.7012631772424485e+32   -7.1946297591310466e+32   -6.4341228742580856e+32   -6.0596584403461949e+32   -5.2083432931651208e+32   -1.4332905207295146e+33   -6.8320538688374865e+32   -4.2377762430727944e+32   -1.3617669532429829e+33   -6.9172913114758972e+32   -6.8855231228135134e+32   -7.7677475810575078e+32   7.0558691891816702e+32   -1.7952190002698250e+33   -2.0299513302980748e+33   -5.5152251433552062e+32   -8.5142608369510086e+32   -5.3269725127698417e+32   -3.2728474037819029e+32   -8.1679205430352493e+32   -5.4683017619891934e+32   -2.7011139541958102e+33   1.6722865949521754e+31   -1.1137429665323178e+33   -4.9925596261399298e+32   -1.1825165346379772e+33   -2.0913388826421913e+33   -2.4905291784223191e+33   -1.1227231484528859e+33   -2.3807943441672963e+33   -6.7668988284757519e+32   -1.8727539665441267e+33   -5.1463074566395498e+32   -1.0085650382812498e+33   -6.0235061842035567e+32   -8.2767193046709689e+32   -1.3178050161438426e+33   -6.7609115227849463e+32   -1.8619609501312253e+33   -8.9647318918025588e+32   -4.3819328036317903e+32   -3.5028651931002102e+32   -9.7767262991734227e+32   -3.0068242637004416e+32   -1.0481054788511399e+33   3.7300871688154214e+32   -1.2619308568460619e+33   -9.5546431980869252e+32   4.0838533168510622e+32   -1.3353767077170409e+33   -5.3642902681507946e+32   -8.6798370188045885e+32   -9.5417702711234386e+32   -1.5626747373026100e+33   -1.0013464511377232e+33   -7.4448914698515824e+32   2.9472019402466190e+32   -2.7989925473788681e+33   -1.3922604543813639e+33   -1.2461352148060491e+33   -1.2446674510398264e+33   -5.7543858949006412e+32   -2.3233304327060326e+32   -7.1174518196411895e+32   -1.1162110404951526e+33   -2.6577672221510245e+33   -1.1749655276190064e+33   -4.1464425574613893e+33   -1.1108618107790108e+33   -2.0204000225035194e+33   1.9205761144254844e+32   -1.0715611141980001e+33   -1.0656194632352016e+33   -2.0550761618372567e+32   -4.4711293770078833e+32   -1.5074938646955494e+33   -2.0592882149475827e+33   -2.9290399362204550e+32   -3.9841213716135533e+32   -6.6515028609903603e+32   -9.0629622317885026e+32   -1.6320069260539877e+33   -7.7833181593345819e+32   -2.5534529128706675e+33   -5.1824943085617178e+32   -6.2462905340079665e+32   -9.5577136643371561e+32   -2.6287561840007284e+32   2.4969093003906055e+32   -1.2212205786826028e+33   -9.4920391180426704e+32   -1.1618609503699319e+33   -6.6013542531987917e+32   -8.6249155324455783e+32   -8.1100645450336671e+31   -1.8231410640231832e+33   -1.1828671066694019e+32   -3.5527412336413918e+32   -7.6385117500690535e+32   4.4916770849172727e+30   -1.7570025123965991e+33   -1.5631317696283855e+33   -6.5543054931703195e+32   -1.9131535312372124e+33   -2.0928444697162155e+33   -1.3674460092289170e+33   -4.4367802604814481e+32   -1.1286126310879588e+33   -9.4458979436397261e+32   -1.1860720690659280e+33   -5.1596149369136709e+32   -2.1148275928317615e+33   -1.8566014549578249e+33   -1.4536249260988936e+33   -1.2488567260802732e+33   -7.3880246739741988e+31   -1.9259087969258343e+33   -1.0703130220330166e+33   -1.3149755145175193e+33   -1.1266657078642849e+33   -2.2393932852939560e+33   -6.3582752019642780e+32   -6.8789920353764794e+32   -2.1863599753832894e+32   1.9348343234242958e+32   -1.9204140163600933e+33   -1.1802778998189612e+33   -1.9835439178468711e+33   -3.8733014023638734e+33   -1.5295313169542411e+33   -9.6445979285001567e+32   -6.6222170865087093e+32   -3.0776902668642323e+32   -1.0890784126119197e+33   -2.0084034272053895e+33   -6.6119786989547339e+32   -1.3601079760916868e+33   -9.1683969167353170e+32   -1.0741249180931165e+33   -6.1604904343022657e+32   -2.3156180706361104e+33   -1.3349033039667463e+33   -1.3415835630184235e+33   -8.3275950634730997e+32   -1.1858957001958147e+33   -3.4129346775706538e+33   -1.3723560231601941e+33   -1.2320386947475148e+33   -8.6130373380847365e+32   -8.1587486250690497e+32   -8.9263587222513862e+32   -4.1081240338160930e+32   -6.4034283804325539e+32   -2.6562666600637022e+32   -4.5928704339237492e+32   -8.4050386735515994e+32   -1.8188792231028639e+33   1.4198559754655871e+32   1.4491690107244640e+33   -1.0198180902056176e+33   -1.9069829280700379e+32   -1.0172444366554564e+33   -8.1131391143179005e+32   -5.7771639332470368e+32   -1.5002065271431089e+33   -1.3957326507052797e+33   -2.4566966573316864e+33   -3.5453905855793463e+32   -7.9549188697369613e+32   -8.5246616892862679e+32   -3.2095570652439342e+31   2.1647098941156323e+32   -1.8903039722714257e+33   -1.7276188416938856e+32   -5.9945516230292558e+32   -1.8005493447201192e+33   -2.1168951225654996e+33   -1.7434489010140352e+33   -6.7387716570460322e+31   -3.0822495856300646e+33   -9.6420178015104460e+32   -2.3701012471179467e+33   -6.4325788870556689e+31   -2.9874655080653417e+32   -7.7939409465398675e+32   -7.6693325834355856e+32   -1.7786005071282173e+33   -1.0297674107615611e+33   -4.8160663023516477e+32   -6.0606198425779567e+32   -1.4031640775159366e+33   -3.0750887474649725e+32   -3.6501264158460497e+32   2.4904928565423935e+30   2.6653882935747161e+32   -1.4231716762619682e+32   -8.6321698496339123e+32   -1.5216676999554313e+33   -2.9355930987840173e+33   -6.0927214582203795e+32   -4.2555344170807872e+32   -3.8617795493731062e+32   -2.2055761083432474e+33   -1.3544617926026603e+33   7.5569970585024764e+32   -1.1231688915471253e+33   -4.6832185512807143e+32   -1.3085167092992254e+33   -1.4526757123009464e+33   -1.3143668207244706e+33   -1.3031082501673606e+33   -1.0621754783694741e+33   -1.7526877224305336e+33   -9.1121384838035056e+32   -1.1110425373120739e+33   2.2613024799296571e+32   -1.0375827758829541e+33   -9.1488112865840123e+32   -1.3407386722085905e+33   -2.1067018531115503e+33   -7.8763981079255418e+32   -6.6851032385209486e+32   -1.4692039059544950e+33   -7.5624806176670955e+32   -1.7704814805062289e+33   -9.9732632316233518e+32   -1.4999044912046493e+33   -8.8939203148314584e+30   -5.7029436798538455e+32   -7.8654048063800294e+32   -6.3124075665191216e+32   -5.8061269683168799e+32   -7.9095281043019129e+32   -9.5594328732385651e+32   -9.3300253338000413e+32   -1.4799683754458297e+33   -2.1828082827008171e+33   -7.4681048286298019e+31   -1.3563556806941447e+33   -5.9983485758544207e+32   -1.0202746287862501e+33   -1.3358488072128977e+33   -2.2562162093145165e+33   -6.0971266255059641e+32   -2.0495501539890572e+33   -7.0423510731962029e+32   -9.6289741285740929e+32   -2.8923110181405844e+32   7.1716831147880448e+29   -8.5948385404435083e+32   -9.5772067777346914e+32   -1.7484089533053767e+33   -1.8770552679093135e+32   -2.2372890470039693e+32   -4.2215482742336191e+32   -1.0219313828396907e+33   -1.5690213279398717e+33   -3.1361793127580001e+33   -2.6885227012268026e+32   -3.5700514598606053e+32   -1.1012200260889624e+33   -7.5287315884469406e+32   -1.9632302398132986e+33   -7.8308776786827671e+32   -1.3152159100043704e+33   -3.4430223148088113e+32   -2.4452644031138325e+33   -1.4140878952910022e+33   -1.1130700063660944e+33   -1.5348563769690892e+33   -1.7843891300849425e+33   -1.4596840238653563e+33   -5.8393703015611965e+32   -7.9908346435739368e+32   -7.1625927141800431e+32   -8.7348507663521059e+32   -9.8723937893037337e+32   -4.5492454221242703e+32   -7.7387600814073576e+32   -1.0966967725605656e+33   -1.1702768532676944e+33   -1.5577896917894416e+32   -1.2505537882483809e+33   -9.5177326393994747e+32   -1.8050692799493493e+33   -7.2689262113206731e+30   -4.6941357199094988e+32   -1.2148773041127881e+33   -2.3764072564258295e+32   -6.1857139147448015e+32   -1.3616396161354756e+32   -5.6370054828741699e+32   -6.9915150629495234e+32   -1.3701552793437596e+32   -3.3338623130738724e+32   -1.9163193768149120e+33   -9.5353562457498601e+32   -6.9789543998182277e+32   -8.5980048718288446e+32   -9.5030512318870834e+32   -1.2068005125879464e+33   -5.7191748850074315e+32   1.6710957240345277e+31   6.9076656437114014e+31   -6.2960809285010049e+32   -9.5631204156026409e+31   -5.1115274247006378e+32   4.6432895167533359e+31   -1.0467579108492209e+33   -9.1292477670850053e+32   -1.0077036242493907e+31   -5.9588015310692813e+32   -8.2385169734980647e+32   -4.5055845945795233e+32   -9.2093614264815422e+32   -1.5591592530325501e+33   -1.8987989236931816e+33   -6.1789470418487791e+32   -2.0348237372535313e+33   -1.1737294039840127e+33   -7.0966677583233934e+32   -1.8129607945346497e+33   -1.2520595622461922e+33   -1.4603591647784609e+32   -3.0619947243238332e+31   -6.6273625593623360e+32   -1.5533743956084620e+33   -9.3313914069535928e+32   -6.3856990932067221e+32   -8.6623876384329008e+31   -4.3602420924165829e+32   -1.0149096016976768e+33   -4.3660670923219829e+32   -9.9318096920678401e+31   3.2155016406516597e+32   -5.7793526535557871e+32   -9.1734430185376913e+32   -2.3288136509116097e+32   -1.7024705832440180e+32   -1.3696705677739728e+33   8.6485609421321977e+31   -9.6697901197556287e+32   -1.0889651247406627e+32   -1.0859613227288877e+33   -8.5410493824712581e+32   -7.3756600447732933e+32   -7.7492318472820432e+32   -1.5460900086821769e+32   -7.8920151090178082e+32   -2.4711770084024782e+32   6.5233542160460601e+30   1.1541513919822889e+32   2.4159966451883515e+32   -1.2384725043122704e+33   -6.5556266452696545e+32   -8.3413534792179870e+32   -2.2306329902558922e+32   4.7986924979558986e+32   -6.0334086195308138e+32   -2.1521647024490654e+33   -8.0139326058700040e+32   -9.4821671269213956e+32   -8.8256717634288060e+32   4.0520283339865941e+31   -1.8339422184959921e+32   2.7809206962822584e+32   -6.9386619440892536e+32   -6.6845910118656298e+32   -1.3781276144416050e+33   -1.4346100833071439e+33   -1.2140806040566448e+33   -1.6826508247560907e+33   -1.0469193520794605e+33   -1.1741682348912827e+33   -1.4175066872793996e+33   -1.9850600750343952e+33   -1.3187622288499273e+33   -6.6828555841848219e+32   -1.2223616530067204e+33   -1.6306881392786079e+33   -3.3635692590198017e+32   -1.0250584077209635e+33   -7.8863907732112520e+32   -1.1332676227967853e+33   -5.7378203470772475e+32   -2.1333237887829056e+31   -1.2670078061025062e+33   -2.5969429009996038e+33   -9.7546088747107425e+32   -3.1547137950464800e+32   -1.0741293173656484e+33   -1.6784609136293030e+30   -3.6962780473496925e+32   -1.9419507402264538e+32   1.7728224133338269e+32   -3.3968074845687924e+32   -1.3844755222720873e+32   -1.0551223583492693e+33   -1.2387878445797345e+33   -1.3592972331487404e+32   -7.0974350278922842e+32   -1.2932983124864171e+33   3.5617934517693835e+32   9.6885863394985677e+32   -1.3543514725530655e+33   8.4385038387608951e+32   -1.1820099134039926e+33   -1.4675841853694874e+33   -3.0608132462447367e+32   1.0495840222263329e+32   -1.7442715375960956e+33   -6.1048860437126767e+32   2.7078239173848683e+31   -1.2218194095111520e+33   -8.2122942086600086e+32   -1.3148130382422736e+32   -1.6782983141264367e+33   -8.8765729758518274e+32   -1.9312102037753850e+32   -5.3778688654735012e+32   -3.6363654640337626e+32   -7.9281573112854556e+32   -8.6159623322213873e+32   -5.6147098364823681e+32   -1.5004094849229255e+33   -3.0813720289226884e+32   -9.6721029185040983e+31   -1.295688799701044