<?xml version="1.0"?>
<VTKFile type="UnstructuredGrid"  version="0.1"  >
<UnstructuredGrid>
<Piece  NumberOfPoints="2534" NumberOfCells="4892">
<Points>
<DataArray  type="Float64"  NumberOfComponents="3"  format="ascii">0 3 0  0 -3 0  6 -3 0  6 3 0  3 -3 0  6 0 0  3 3 0  0 0 0  3 0 0  0 -1.5 0  1.5 -3 0  1.5 3 0  0 1.5 0  6 -1.5 0  4.5 -3 0  6 1.5 0  4.5 3 0  4.25 -1.25 0  1.75 1.25 0  2.25 -1.5 0  4.5 0.75 0  1.541666666666667 -0.2083333333333333 0  3.219827586206896 1.521551724137931 0  1.125 -1.875 0  4.875 1.875 0  0.8702651515151515 0.631628787878788 0  2.25 2.214285714285714 0  3.316176470588236 -1.904411764705882 0  5.214285714285714 -0.75 0  5.03125 -2.03125 0  0.96875 2.03125 0  4.041666666666667 -0.2083333333333333 0  0.8205128205128206 -0.9134615384615387 0  3.942582294752138 2.189194098250713 0  3.061487638533674 -0.968243819266837 0  2.192708333333333 0.4427083333333334 0  4.157850026972511 -2.182329047049442 0  2.331456616463011 -0.5285296485744057 0  3.654761904761905 0.5654761904761902 0  5.25 1.125 0  2.563673341677096 -2.280663329161452 0  5.126674107142857 0.1283482142857142 0  0.75 -3 0  0 -2.25 0  6 2.25 0  5.25 3 0  0.7680051888903191 -0.1384245958639337 0  1.617229471026718 -1.006949429867069 0  4.218940341429579 1.468686552856807 0  3.75 -3 0  2.25 -3 0  0.75 3 0  5.25 -3 0  6 -0.75 0  0 -0.75 0  0 0.75 0  2.25 3 0  6 -2.25 0  0 2.25 0  3.75 3 0  6 0.75 0  1.787573018358365 -2.279142327213878 0  3.195025188237337 2.273430909158844 0  2.528159645294386 1.151699106559287 0  1.041598427383826 1.322848427383826 0  1.520951704545454 0.4634232954545453 0  1.580357142857143 2.325892857142857 0  4.919642857142857 -1.361607142857143 0  4.54981623521892 -0.6483700862895494 0  2.99317863826574 0.6697091957925523 0  3.450169349029507 -0.4574865881858001 0  3.605016126014028 -1.323102984840902 0  2.745144658907412 1.882241931337371 0  0.4898065586600511 1.092777516238393 0  0.5 -1.875 0  1.217028489597945 -2.469323836800685 0  1.659912685567181 -1.604738056701542 0  5.4375 1.6875 0  5.34375 2.34375 0  4.52741779500503 2.384139265001677 0  3.375 -2.514804579549941 0  0.5446428571428571 -2.455357142857143 0  2.766554087216865 -1.745795909102064 0  4.525516559010988 0.1490283123570637 0  3.87554132162248 -0.8280516069565407 0  4.53622906132958 -1.76963146596888 0  0.4243951612903226 1.875 0  0.554851858345021 2.446861709948876 0  5.575604838709677 -1.875 0  5.445148141654979 -2.446861709948876 0  4.875 -2.575604838709677 0  1.440573466105381 1.721823466105381 0  2.193519495405082 1.631799415080963 0  5.472630128027442 -1.330813078900983 0  4.750126894286386 1.343813447143193 0  5.607142857142857 -0.375 0  2.625 2.607142857142857 0  0.3921763197810531 0.375 0  5.60901753622775 0.3750000000000001 0  1.125 2.613454943235572 0  3.701856738980915 1.163867513386733 0  3.736112850688509 1.696746876851408 0  3.519183195491339 0.06065128742606851 0  3.973620778217027 -1.693401606145563 0  0.8125 -1.444978632478633 0  1.256657745408029 -0.6381828923025001 0  0 -1.125 0  5.019997778514942 0.6475044429701156 0  4.125 3 0  1.285569332703024 0.8955310332120207 0  0 -0.375 0  0.4638922275641027 -0.5625 0  2.056635259780241 -0.07226025978024064 0  2.130475508371123 -1.000827820434028 0  2.677484372338113 -1.267299126394495 0  2.848680878891876 -0.4956836878192376 0  4.937901885089369 -0.3340245904575954 0  4.393563081308854 1.919544166973803 0  4.053859126323572 0.2813938488760716 0  1.181051704329518 0.1167440895674965 0  1.971354166666667 2.607142857142857 0  4.875 3 0  2.519350561152006 0.08093582719875507 0  3.139443301924015 -1.442524927271905 0  6 2.625 0  1.849169256239503 1.945480934753207 0  1.867196483071171 0.7892354369530077 0  1.192506522009051 -1.184888428863342 0  3.375 3 0  3.603234392481833 2.536866305538572 0  3.846752908916648 -2.537707634073423 0  2.014339897513945 -1.886932065281681 0  4.038392037966526 0.8363324773944992 0  4.421242701722609 -2.552534687860327 0  3.715389848650903 -2.108856956172843 0  2.985668138820625 1.127780908772207 0  0.4500794934449803 -1.173696061598557 0  3.366760888116476 0.8891914618875614 0  1.869163043700093 -0.6107175804171328 0  2.175114838273305 -2.53928723780967 0  3.014417665538299 -2.241523065744933 0  2.625 -3 0  2.819968145332426 -2.617202329573456 0  5.625 1.3125 0  5.563263538826679 0.814027077653358 0  5.625 3 0  2.550041671270923 0.7074928970804664 0  4.014583091741168 2.59891853892166 0  0.6440729668673318 1.499523832583132 0  5.219449799568244 -1.660557808485412 0  3.474012636702472 -0.9300738420779746 0  0.8125 -2.142857142857143 0  1.875 -3 0  4.945010515846405 2.554471797033147 0  2.611388969012422 -0.8478354915063726 0  3.223746055611014 0.3371683159691745 0  4.843939757110898 -0.9483610977948225 0  4.66556954816842 -2.220888354477256 0  4.125 -3 0  4.448108395110625 -0.2524000502731018 0  5.63671875 2.05078125 0  2.822484133964224 1.491327727709286 0  3.378213092764193 1.903125093887009 0  5.607142857142858 -0.9231200445788541 0  2.12639693023183 1.100450516019641 0  5.625 -3 0  0.375 3 0  0 2.625 0  6 -2.625 0  0.3931307155906299 -0.01856779822591927 0  0.8549199714190221 -0.5218333744252657 0  0.7651723094668359 0.253768144801553 0  1.421989550604507 -2.133299471886336 0  1.582611957351803 -2.615166692128227 0  4.420331038793115 1.133144382396504 0  0.375 -3 0  0 -2.625 0  5.078156723571596 1.54697017071479 0  1.877250715260938 -1.288801575378032 0  2.409169073010687 -1.916147168931784 0  1.146151077069952 -0.268000681695328 0  1.726784828652036 0.1335728643263411 0  2.745628549924675 0.3838821021397905 0  3.011490900297165 2.613625569196862 0  5.62463365164608 -4.137655439684362e-05 0  1.875 3 0  1.125 3 0  6 0.375 0  2.625 3 0  6 -1.125 0  6 -0.375 0  4.875 -3 0  6 -1.875 0  3.375 -3 0  1.125 -3 0  0 -1.875 0  0 0.375 0  0 1.125 0  0 1.875 0  6 1.125 0  6 1.875 0  4.813017731148975 0.9677363687196439 0  2.807371623148303 2.264962208227767 0  0.3692953377255688 0.7436406761680247 0  5.615625 2.615625 0  0.9395725521479794 0.9812935874921043 0  1.390920759130215 1.238984550166515 0  0.9588795022085095 1.672288500195331 0  0.87712392565124 -2.641031728267331 0  0.3665732993114588 -1.532068934251388 0  1.841944504733106 1.591700334213738 0  4.832970185136452 0.3385359233091246 0  4.169083540479082 -0.5746148619765254 0  5.281697083409333 -0.2046640461936881 0  4.072845380968044 1.784516523483641 0  1.293029195762321 -1.543079049035419 0  4.878733886054284 -1.720697370582964 0  3.609167475697567 -1.687579152754035 0  4.836981942878573 2.222259978217028 0  4.204938267037067 -0.9128589669335569 0  5.183079748175263 -1.111742407358677 0  1.469404041858679 2.654509729682302 0  1.22880920402559 2.273525645756405 0  4.566761045622856 -1.414165869120005 0  4.531680518427715 1.606803989975667 0  1.918929241273175 2.27471131819245 0  3.590183783343969 2.184680610175416 0  1.85683899811842 0.4533569963423589 0  1.173935704088662 0.4636872214645547 0  2.116602160898525 -2.207718541460878 0  4.51821874648995 -1.042568353750147 0  2.721551512787618 -0.1859357475290837 0  5.294921875 2.001953125 0  5.288671874999999 2.670703125 0  2.199940744527116 0.7756512213396931 0  4.090519467638897 1.163401080812838 0  2.298177083333333 2.670581371753247 0  2.484362362207526 -2.687319997637033 0  3.300530569898859 1.207053005217563 0  3.936078051808127 -1.362164062673065 0  5.341218841330105 0.5689885832563615 0  4.226314635599414 0.5638853401248238 0  2.524510956818563 1.635483567726497 0  0.3219546452225031 1.389066019009203 0  3.139061555368706 -0.3133905221155423 0  3.145569907612562 -0.6461828528638952 0  3.701427442033566 -0.2272880199383185 0  1.686782510365738 -1.934662341426927 0  2.427696494631844 1.944064773844184 0  3.901817839425732 1.422433381251312 0  2.356489883772755 -0.2025512972825912 0  4.820757576351118 -0.01647699434507374 0  3.064415631228375 1.809719380809516 0  4.643002705009462 2.69782572459795 0  4.31624250429496 2.728112685900672 0  1.520100694408069 -1.314302747998057 0  3.754559308601717 -0.5375020107416889 0  0.25 -2.0625 0  0.8125 -1.826636904761905 0  4.861738621091127 -0.6367294570749906 0  1.545149590740081 2.015832101819233 0  3.857113324620078 0.04127675193819436 0  0.3162874907704933 -0.864918315983958 0  4.21293081604216 2.352874368135467 0  3.123697687162562 -2.708090473740421 0  3.415275466010259 -2.202892416689829 0  3.601103065320932 -2.727566580522146 0  1.558629964945672 -0.5289921609136927 0  3.324859026263307 -1.198136798699183 0  2.424350759683917 -1.092246517929194 0  2.789248065239812 0.8954629970670158 0  0.8882026075771248 2.364936378889839 0  0.8066140242673685 2.679750706449505 0  4.504454978490482 0.4491616076730165 0  4.26881784709759 -0.009649566552704852 0  1.313479173834523 -2.758675889510418 0  1.120577805361368 -2.179971784090952 0  3.734048623985226 0.8602850349907256 0  3.527828882622877 1.432983527791925 0  1.959527908877504 -1.578124930685265 0  0.7602573574724077 1.220872343399509 0  0.6691217533356228 0.8531987603309893 0  1.877213035764122 -2.564340152892596 0  3.304349402914068 2.552016594979913 0  4.285565286275464 -1.569057178671076 0  4.227521511146333 -1.876903861267543 0  5.34375 1.40625 0  5.71875 1.59375 0  1.56245959534423 0.766197796710638 0  0.2458241530773257 2.4375 0  0.2794123857609179 2.138568368155198 0  5.754175846922674 -2.4375 0  5.720587614239082 -2.138568368155198 0  0.6472458227887359 2.124973059628837 0  5.124241021325378 -2.352544055105642 0  5.189172233440652 -2.675873509996353 0  5.364643151640443 -2.12768524739804 0  2.298896485720138 1.348573610321417 0  0.6008689899200503 -2.745193425346304 0  0.307092513690391 -2.651812055231556 0  0.2683745826107009 -2.363146293324415 0  0.5223214285714285 -2.165178571428571 0  0.5169611136983336 2.740349995819724 0  5.607469108596883 -2.699891746740618 0  2.138439274270545 1.947386893596098 0  1.25507379660067 1.953406658386351 0  4.135759889512124 -2.476847355718572 0  2.548249345531056 -1.538893887888457 0  2.771010284190282 -2.05339728351
[...]
<CellData  Scalars="f_26-2"> 
<DataArray  type="Float64"  Name="f_26-2"  format="ascii">-2.0709567925324077e+06   -2.3928339946283107e+06   -3.6024873960786709e+06   -3.1029728529169946e+06   -3.4502224479861502e+06   -6.2789921588430088e+06   -2.1610266736433953e+06   -2.8426773832698545e+05   -2.5339640342916391e+05   -2.0307503448898001e+06   -1.6828448802320422e+06   -3.0313124835801381e+06   -1.1361499971575155e+06   -3.8542038415295314e+06   -3.2806135111577908e+05   -2.6716990929634543e+06   -3.3515101790670524e+06   -8.1229548721506697e+04   -2.5848502458468308e+06   -1.5618177394027994e+06   -4.5776416158532156e+06   -1.0663683891196756e+06   -2.8669140154453996e+06   -1.4621573334757688e+06   -2.0517921995741045e+06   -2.6575289048352363e+06   -4.5456029690673174e+06   -1.5437626679622815e+06   -1.6479604468201369e+06   -2.4399276895434442e+06   -1.1925206630422922e+06   -1.2293515543846558e+06   -2.1658663778035971e+06   -1.7405674333317569e+06   -2.0969217521175961e+06   -2.3926323929919265e+06   -3.0481540578184985e+06   5.8681026043425070e+05   -3.7315050538171665e+06   -2.6077102702615466e+06   -1.0115264219893988e+06   -2.4064157571818647e+06   -1.5357847276264457e+06   7.6477629871645686e+05   -8.0777571175464503e+06   -3.4575718255628198e+06   -4.6114937162835374e+06   -1.2520788128035031e+06   -2.5690968591389074e+06   4.8948856573511184e+04   -2.8633113301709881e+06   -1.9204411985370193e+06   -1.1975600745928970e+06   -2.6944560763157480e+06   -2.2034998004883812e+06   -2.1376507584268586e+06   -3.7020868746234351e+06   -2.7718327960796924e+06   -3.5353886024873704e+05   -3.3240262564183641e+06   -1.4342718966744954e+06   -2.2892654346089670e+06   -3.6561125677771899e+06   -2.0392554783574876e+06   -6.6222490943131549e+05   -2.5978430166415684e+06   -3.7307700103165898e+06   -4.7349181207442848e+05   -9.6033111711851635e+05   -2.6761306994410013e+06   -1.3256504714110612e+06   -1.1156667681987604e+05   -6.4910111920922133e+05   -2.1454169635814303e+06   -1.8126249785116888e+06   -2.6587085771632998e+05   -1.1236850329663246e+06   -2.1528433410069374e+06   -4.0006316242035748e+06   -6.4932538515450980e+05   -1.2648712771786784e+06   -1.9316831591865844e+06   -2.7770529489072324e+06   -4.6100618661339134e+06   -1.6292811251036632e+06   -2.6146531928130956e+06   -8.5419811125666695e+05   -2.2203006032503094e+06   -2.1738818081083740e+06   -2.2972448385786489e+06   -2.7238185158030777e+06   -2.4538525891374107e+06   -4.6338606302197548e+06   -5.2045720690904418e+05   4.3119372904684889e+05   -4.1567612657481092e+06   -1.8592584035603615e+05   -1.7050668541580616e+06   -1.6351776924593330e+06   -1.1075581415615110e+06   -1.2938983589619023e+06   -4.4877346697685408e+05   -1.3955009270368887e+06   -1.1035302104381321e+06   -2.4250591513423878e+06   -4.2063897122566747e+06   -3.4156261064396990e+06   -1.8293008785284227e+06   -3.5337900575164100e+05   -1.5413555060195571e+06   -1.5087502630070380e+06   -9.9807628343766474e+05   -1.1509086292782750e+06   -1.7268200740038918e+06   -2.0391249478129148e+06   -3.7194404004250593e+06   -5.3029765285198707e+06   -1.0443521400804932e+06   -1.2248247030064485e+06   -5.1794496305884179e+06   -3.1088689922927477e+05   -2.6409490186592927e+06   -2.5938283899341915e+06   -8.4763755075294815e+05   -2.1917934963806435e+06   -1.1345634529946411e+06   -6.8339027426051684e+06   -2.0488893345351492e+06   -5.1785511750536505e+06   -1.1721327158581964e+06   -1.7006493590983902e+06   -2.3200350659379391e+06   -2.4064952643151036e+06   -7.1628125198659883e+05   -1.9697475594546364e+05   -1.1493321816756001e+06   -2.5132262558078635e+06   -5.3111208755672518e+06   -7.1265997405985987e+05   -2.9873110015731207e+06   -1.5004558129923616e+06   -1.3989891658365189e+06   -3.6069122338002832e+06   -3.8485932291381946e+06   -4.4289648540344537e+05   -1.0824149241046967e+07   -2.6771717928291927e+05   -3.1113307076787008e+06   -1.9107943895266089e+06   -6.4089758252078819e+05   -1.4326018813880810e+06   -1.8478480407199168e+06   -2.0570596242776001e+06   -2.7849920212675584e+06   -2.4249140787143307e+06   -1.6121439388652314e+06   -2.6198537873544162e+06   2.7632041521680716e+05   -4.7730111947291577e+06   -9.9656769127361570e+05   -4.3792046130323373e+06   -1.6388617999870221e+06   -2.0120340095573489e+06   -4.1893846343123433e+06   -1.1758963008128649e+06   -3.9065559670898668e+06   -1.8984880123121431e+06   -3.3635958096903879e+06   -1.8461937816606304e+06   -1.4950205222773110e+06   -5.2350391705368028e+05   -8.0906496931893961e+05   -2.4978334950295445e+06   -6.8868809317750973e+05   -1.3474753130923961e+06   -4.6844402365145097e+06   -2.0231949824034569e+06   -1.4939298917495371e+06   -2.7204579443007195e+06   -9.3291598929206771e+05   -1.1745768836855374e+06   -3.2787461009842966e+05   -9.0102185236017779e+05   -1.4179027119955609e+06   -4.8385522722166665e+06   -4.5440127565529244e+06   -2.9292618190697455e+06   -2.5584550009439364e+06   1.9257561387919632e+05   -1.5456301013230185e+06   -7.0027151284315332e+05   -2.6775551943394151e+06   -4.7901354198273161e+05   -2.1579419875296876e+06   -4.2310165461127937e+05   -3.9531751575493980e+06   -3.2773882217520205e+06   -2.6027577201028899e+06   -8.7488410382927163e+05   -1.2357340915980733e+06   -2.3175933380567221e+05   -2.5927072540916065e+06   -3.0068996568070967e+06   -2.1282263057041937e+06   -3.0205790455859811e+06   -1.6762827453151639e+06   -6.6415273097227130e+05   -4.3563209379778849e+06   -1.8855540781705349e+06   -2.7665444012648519e+06   2.6488789102848957e+05   -1.0653540848572243e+06   -2.0534563937726379e+06   -3.7149478484550247e+05   -5.0300312882508403e+06   -2.3054488716628253e+06   -3.5890338555384306e+06   -1.4119989325873617e+06   -1.1909006774110326e+06   -5.0989445228390312e+06   -9.8790512051965354e+05   -2.9602367414833037e+06   -4.5711892084358204e+06   -2.1069702458043066e+06   -2.5000977673208960e+06   -2.4083697165363217e+06   -3.9408153691164043e+05   -1.0870709540068221e+06   6.7140119442673295e+05   -1.6801038575852967e+06   4.4210525259024820e+04   -4.3950249307759246e+05   -1.1532697842063892e+06   -1.4579898841806061e+06   -3.6146719548787274e+06   -3.6484047961286344e+06   -2.5648032670903541e+06   -1.1493186535411673e+06   -9.3170945463782398e+05   -9.0215174232965684e+05   -4.6475386134815356e+05   -2.0659506034092729e+06   -3.2266783562664189e+06   -1.0674169672581337e+06   -4.0718397345115836e+06   -1.4397799550724665e+06   -3.8403606943459301e+06   -1.2467397974509599e+06   -7.0853116433300846e+05   3.1769555734949664e+05   -6.5338852518926980e+05   -7.1329653816768841e+05   -2.6298727946703047e+06   -1.8585064455241556e+06   -1.1593151769733215e+06   -8.4874527198160207e+05   -1.0689581526481879e+06   -1.4299946090330672e+06   4.8169526506255171e+05   -1.5969923250775218e+06   -9.0795932799628493e+05   -4.1942598503325824e+06   -1.4493156606191183e+06   -2.1397290856058053e+06   -1.4932187215850947e+06   -2.2313162602290441e+06   -9.2838379036068334e+05   -1.5402729247443308e+06   -3.3538790100647686e+06   -1.6221457036570465e+05   -2.1059333618881465e+06   -3.1527280878349012e+06   -3.8817410127544128e+06   -3.3578919261246184e+06   -1.7007624161066193e+05   -7.0350767413006222e+05   -3.2477688149661344e+05   -2.6518158986671534e+06   -1.5459696232456840e+06   -7.0949714505043940e+05   -1.8908861619645879e+06   -3.5787180308821669e+05   -2.8000558880396131e+06   -1.5316367789785794e+06   -8.2119994840303599e+05   -6.2037389799024293e+05   -2.2327287901671613e+06   -2.1772865106807854e+06   -1.7276725018593299e+06   1.8624135718262085e+05   -2.5332640045792577e+06   -2.7513397471299511e+06   3.1033481233355596e+04   -8.7942902156899218e+05   -1.0771783130889318e+06   -1.9447206974892656e+06   -1.9003291454743044e+06   -4.2877351900539268e+05   -2.2017739687493434e+06   -5.8171966534139449e+06   -2.8516695760449818e+06   -1.7540687493048343e+06   -2.1148611684932611e+06   -1.3674617154538326e+06   -7.1183436543232622e+05   -9.2011119907956105e+05   -3.2686181286455682e+06   -3.2995585358112032e+05   -1.5409677508156670e+06   -1.0226600283149406e+06   -1.3138394308616237e+06   -1.5733417695046065e+06   -3.1311782992801741e+06   -1.4928411228475124e+06   -1.9560913678416791e+06   -1.3977196200670395e+06   -1.8427101151845010e+06   -2.2833839956497871e+06   -1.4512076935262224e+06   -3.3802369328874322e+06   -3.7762717074529892e+06   -1.1543344976909645e+06   -1.8411235142763986e+06   -3.0646601617661715e+06   -1.2255407140746675e+06   -1.7860519901457063e+06   -1.8658117424271712e+06   -2.7877570262672123e+06   -2.6406675967164962e+06   1.9166393697896140e+05   -2.7327103927075164e+06   -1.8751602207036314e+06   -2.3789765376995443e+06   -2.7920122795485086e+06   -1.9976418800287289e+06   -3.0662572941120290e+06   -9.3407282573484431e+05   -7.7626685855931800e+05   -1.6129905768224252e+06   -2.3487263394420696e+06   -6.3633869698215974e+05   -1.2953689498866829e+06   -1.1925599864259893e+06   -9.7537639853110048e+05   -8.2433910562131426e+05   -2.5047352372241137e+06   -1.1845676269928424e+06   -6.6337533352758351e+05   -2.2322473336462048e+06   -1.2213063653255296e+06   -1.2187399051226780e+06   -1.3504987485339954e+06   1.2232417278021793e+06   -3.0882279225638774e+06   -3.4783727040179754e+06   -9.8540184094834188e+05   -1.5276508037011842e+06   -9.7545768668241426e+05   -6.0981381832828536e+05   -1.2006835477269208e+06   -7.7149157407351397e+05   -3.7114471301000328e+06   4.0933792217778246e+04   -2.0249795195966009e+06   -8.0704115853153856e+05   -2.0515278866328986e+06   -3.6295757081167283e+06   -4.3589078399657244e+06   -1.9536207154170449e+06   -4.4318970136917559e+06   -1.2495496585168666e+06   -3.1741167213292215e+06   -8.5468050878206373e+05   -1.8246611855745460e+06   -1.0837510353862962e+06   -1.4500103808177838e+06   -2.3086942872144203e+06   -1.1149506801831697e+06   -3.1055674165753964e+06   -1.6645929158529365e+06   -8.1998143464712100e+05   -6.5483543557991670e+05   -1.8291786637074808e+06   -5.6183872574077279e+05   -1.9673860574839690e+06   6.4278833253158198e+05   -2.1806940741868913e+06   -1.6610946774669357e+06   7.1627668241255893e+05   -2.1923465395007585e+06   -8.9861972376483597e+05   -1.5613500035287745e+06   -1.6941981206256435e+06   -2.7732308809636747e+06   -1.7906126148626385e+06   -1.3151547187572301e+06   5.1527084195387253e+05   -4.2879433259951118e+06   -2.0526923700636700e+06   -1.8538501939337002e+06   -2.1757820333757410e+06   -9.9263092149014340e+05   -4.3433842853628180e+05   -1.3324550560542019e+06   -1.9315510787570057e+06   -4.5921094602980772e+06   -2.0251284653914061e+06   -7.1273015404668692e+06   -1.9777159502721245e+06   -3.7237394480076772e+06   3.2487770137007104e+05   -1.8440035403124858e+06   -1.9531651032437554e+06   -3.8227851929885749e+05   -7.5389197869595920e+05   -2.5358899181330255e+06   -3.2197478508103061e+06   -4.3951863832896494e+05   -7.0413513864259329e+05   -1.2047661833262688e+06   -1.6299483079810163e+06   -2.9369662572745620e+06   -1.3390606987692211e+06   -4.4286781199496463e+06   -9.5031699607317674e+05   -1.1366916354647758e+06   -1.6909070047687644e+06   -4.7778126347293874e+05   4.6559736457951821e+05   -2.1974139888203903e+06   -1.5610791810442633e+06   -1.9068074686784695e+06   -1.0798618697366121e+06   -1.4707940526314217e+06   -1.3593494108014021e+05   -3.3435783135003918e+06   -2.1443848152949914e+05   -6.0747142091007764e+05   -1.3114326184291041e+06   7.4992737500988569e+03   -3.0197946442641956e+06   -2.8067527603092897e+06   -1.1781287735124039e+06   -3.3857055963897589e+06   -3.7521504326369925e+06   -2.3917626184208766e+06   -7.6792675946839282e+05   -1.8923661781765574e+06   -1.6047277079435007e+06   -1.9953007065944581e+06   -8.5843872001119924e+05   -3.6408968051591087e+06   -3.1884330740588573e+06   -2.4131552095735562e+06   -2.0361655854965651e+06   -1.3468852083920815e+05   -3.5486647837498356e+06   -1.9237378754412816e+06   -2.3552838156198575e+06   -1.6763979503477558e+06   -3.4549828939948711e+06   -9.1174623540595907e+05   -1.0005698860916290e+06   -3.7197647707626765e+05   3.4773205954537931e+05   -3.1376695882952665e+06   -1.9380495822886170e+06   -3.2522310959383207e+06   -6.6869231684639705e+06   -2.6359874047223856e+06   -1.6450301026139574e+06   -1.1034826617852768e+06   -5.0971153874839033e+05   -1.8709921903051757e+06   -3.4682177272331393e+06   -1.1365547696394268e+06   -2.3187456645046477e+06   -1.5644632496391437e+06   -1.8466807288930449e+06   -1.0910034901103126e+06   -4.0957613781424323e+06   -2.3110299253948801e+06   -2.3204032182819145e+06   -1.4461946508480504e+06   -2.0543545755185299e+06   -5.8977348921247143e+06   -2.3686449355614916e+06   -2.1168327022011220e+06   -1.4008349093048538e+06   -1.3235158665092143e+06   -1.5228805180048533e+06   -7.1757811155373149e+05   -1.1226950830592385e+06   -4.4717327332918067e+05   -7.8247088192233990e+05   -1.5202068711603621e+06   -3.2813810855355994e+06   2.5519969193503165e+05   2.5265626791333007e+06   -1.8054347035034990e+06   -3.4404648891403060e+05   -1.8541221363180154e+06   -1.4622272760822610e+06   -9.4681758419988852e+05   -2.5033393445425164e+06   -2.5439755057946672e+06   -4.5347038369062068e+06   -6.5619252357066027e+05   -1.4280074801084150e+06   -1.5302864379687654e+06   -5.1950426867965500e+04   3.8414154297179653e+05   -3.3678151217993270e+06   -2.9237036142739403e+05   -9.8231918487560167e+05   -3.1238554148799316e+06   -3.6793781695925412e+06   -3.0271820957108247e+06   -8.5278996113977511e+04   -4.2599852601088546e+06   -1.6561198247170609e+06   -4.0737428203043030e+06   -1.0453320839949849e+05   -5.1757592983059859e+05   -1.3485993903951454e+06   -1.3349914836756117e+06   -3.3146097258684309e+06   -1.9139809045357297e+06   -7.4353595085714920e+05   -9.5350048649421975e+05   -2.5517974023153670e+06   -5.5523118754007260e+05   -6.7241707240934693e+05   3.8489463152506660e+03   4.9719898195825779e+05   -2.6142938332280691e+05   -1.5069816074390484e+06   -2.6484982230952126e+06   -5.2282173571729595e+06   -1.1029807694126109e+06   -7.6735274267162522e+05   -7.0032291676063521e+05   -3.7702288253134289e+06   -2.3311907043683324e+06   1.3338614447981862e+06   -1.9350958620074484e+06   -8.0494477123089321e+05   -2.2481494181433963e+06   -2.5233678795471531e+06   -2.2866350053525292e+06   -2.2162562319476539e+06   -1.8019239837922554e+06   -3.0392926941062319e+06   -1.5792481274860697e+06   -1.8872219334209978e+06   3.9103907371439104e+05   -1.8655195464397154e+06   -1.6480101355353072e+06   -2.3162294919804102e+06   -3.6656429020220153e+06   -1.2073542685509466e+06   -1.0167625717899854e+06   -2.2562701634364757e+06   -1.1385483985866045e+06   -3.1764485610377183e+06   -1.7708063463005254e+06   -2.5605486864519282e+06   -2.6823494158464855e+04   -9.5163878535462718e+05   -1.3114645491844784e+06   -1.0511317483196585e+06   -9.6969179284385801e+05   -1.3405323572525484e+06   -1.6063083779192055e+06   -1.4358947591596206e+06   -2.4688514106341661e+06   -3.8974532734580468e+06   -1.2879412151651375e+05   -2.4409089923608536e+06   -1.0783780523159227e+06   -1.5760621737014230e+06   -2.0589269508719426e+06   -4.0284345856868960e+06   -1.0819626403552708e+06   -3.2937532311901697e+06   -1.0867640281784069e+06   -1.6324298314299951e+06   -4.7935936846953584e+05   1.2964933117058133e+03   -1.6071173040454600e+06   -1.6433607483056802e+06   -2.9871294839582746e+06   -3.2209355584983691e+05   -3.8199485331655823e+05   -7.2543815659740835e+05   -1.7526648300466670e+06   -2.6956895840876196e+06   -5.3912064520911416e+06   -4.4646030935008440e+05   -5.8949526878970873e+05   -1.8662774930903800e+06   -1.2766953417916244e+06   -3.3890000936652571e+06   -1.3025848119011035e+06   -2.1653051205442087e+06   -5.6051501326208247e+05   -4.2271693671917301e+06   -2.4512583206440527e+06   -2.0156760603938056e+06   -2.7955293299900317e+06   -2.5435649712522705e+06   -2.0305455371716730e+06   -9.0039056933662482e+05   -1.2038561957010324e+06   -1.3214179005423503e+06   -1.6256742407267024e+06   -1.6923161753092785e+06   -7.8938748963411106e+05   -1.4429390803493340e+06   -2.0525943415122798e+06   -1.9547005422373028e+06   -2.5703703108585734e+05   -2.1603161756090149e+06   -1.6383699186938778e+06   -2.5526376863895585e+06   -7.7203710141415158e+03   -8.5589340120564785e+05   -2.2095376517587667e+06   -4.3881746559225320e+05   -1.1219094067398992e+06   -2.3832843661601125e+05   -9.7915288980792428e+05   -1.2821991679352636e+06   -2.5631320305563934e+05   -5.7221265704867337e+05   -3.3333739351620404e+06   -1.7030249524093587e+06   -1.2155855368383930e+06   -1.5287399907284263e+06   -1.6706824184910622e+06   -2.1440748682949268e+06   -1.0074230751534451e+06   3.0197293832032417e+04   1.2720621700351426e+05   -1.1174410051411875e+06   -1.5912453988460870e+05   -9.2132740248273010e+05   8.2347271653812044e+04   -1.7982363572735668e+06   -1.5674075449247961e+06   -1.1824844807214935e+04   -1.0113705391618350e+06   -1.4697236786910743e+06   -7.9690581744217791e+05   -1.3510506202886840e+06   -2.2781533471215335e+06   -2.9305133880628548e+06   -9.6194298100011004e+05   -3.5153742226662128e+06   -2.0265459717840850e+06   -1.1905371885570427e+06   -3.2601278106380505e+06   -2.2428619118891140e+06   -2.5518891419765310e+05   -4.4241456499412430e+04   -1.1832034829006046e+06   -2.7918328553122906e+06   -1.6120655988084390e+06   -1.0966225096368035e+06   -1.4202551689979926e+05   -7.5907890953229018e+05   -1.5813906147214796e+06   -7.5363493831998261e+05   -1.6926522456342808e+05   5.5842930253964744e+05   -9.9987667343995080e+05   -1.5671992471679519e+06   -3.9192497301792610e+05   -3.0705819259621383e+05   -2.4612164350101920e+06   1.5162056108550652e+05   -1.7749427244193724e+06   -1.9759865794881439e+05   -1.9693589072590023e+06   -1.4580236816484586e+06   -1.2590678823181510e+06   -1.3225858076909678e+06   -2.6116439365408351e+05   -1.3273016553946806e+06   -4.1695117959024722e+05   1.8843257674766577e+04   2.0616357220459866e+05   4.2796063718267274e+05   -2.2562187347710631e+06   -1.1227970919037159e+06   -1.4279024277414531e+06   -3.7813428579103638e+05   8.4181979713413469e+05   -1.0502636233367843e+06   -3.7393928106196872e+06   -1.3668227104289785e+06   -1.6073692098911284e+06   -1.6417205217489139e+06   7.5235495513895963e+04   -3.3813254973346420e+05   5.1900441021953709e+05   -1.1393605057527979e+06   -1.0963801557791873e+06   -2.1385347465128484e+06   -2.2545690814973977e+06   -2.1100147754343608e+06   -2.9114335321433861e+06   -1.7858034345536479e+06   -2.0195376212554553e+06   -2.5132001087528947e+06   -3.5525674417718425e+06   -2.2904860242068716e+06   -1.1239850715459813e+06   -1.9751011977008916e+06   -2.7527744177569784e+06   -5.1863315338432015e+05   -1.5823784488371359e+06   -1.3525539035816293e+06   -1.9405779556813510e+06   -1.0690350213538881e+06   -3.9736192160847255e+04   -2.2017887193009350e+06   -4.4964318777843425e+06   -1.6887941004357489e+06   -5.5207740414069348e+05   -1.9713391765685559e+06   -2.0999232367706982e+03   -6.6151856189081632e+05   -3.3919197557392257e+05   3.2031703185768978e+05   -5.9768742261421867e+05   -2.5100925715961872e+05   -1.8798845281582815e+06   -1.9825975258391942e+06   -2.3053029051088559e+05   -1.2751087044045557e+06   -2.3384550712683345e+06   6.3449414077975997e+05   1.7175553935781196e+06   -2.3205342542902380e+06   1.4484701067668521e+06   -2.0521654806232885e+06   -2.5369713926309454e+06   -5.7320161633698433e+05   1.9572698957313134e+05   -3.1431498023627573e+06   -1.1041105866277388e+06   4.7310335797006723e+04   -2.0204299847586451e+06   -1.4852379272679493e+06   -2.3056090202743866e+05   -3.0185981391085819e+06   -1.5813118162514598e+06   -3.3793080420353374e+05   -9.6881478397282329e+05   -5.0176004511730722e+05   -1.0922338219486889e+06   -1.4999900286001393e+06   -9.8344042471295653e+05   -2.6133117734168372e+06   -5.2976067313636874e+05   -1.6958760175976096e+05   -2.251206709938415