<?xml version="1.0"?>
<VTKFile type="UnstructuredGrid"  version="0.1"  >
<UnstructuredGrid>
<Piece  NumberOfPoints="2534" NumberOfCells="4892">
<Points>
<DataArray  type="Float64"  NumberOfComponents="3"  format="ascii">0 3 0  0 -3 0  6 -3 0  6 3 0  3 -3 0  6 0 0  3 3 0  0 0 0  3 0 0  0 -1.5 0  1.5 -3 0  1.5 3 0  0 1.5 0  6 -1.5 0  4.5 -3 0  6 1.5 0  4.5 3 0  4.25 -1.25 0  1.75 1.25 0  2.25 -1.5 0  4.5 0.75 0  1.541666666666667 -0.2083333333333333 0  3.219827586206896 1.521551724137931 0  1.125 -1.875 0  4.875 1.875 0  0.8702651515151515 0.631628787878788 0  2.25 2.214285714285714 0  3.316176470588236 -1.904411764705882 0  5.214285714285714 -0.75 0  5.03125 -2.03125 0  0.96875 2.03125 0  4.041666666666667 -0.2083333333333333 0  0.8205128205128206 -0.9134615384615387 0  3.942582294752138 2.189194098250713 0  3.061487638533674 -0.968243819266837 0  2.192708333333333 0.4427083333333334 0  4.157850026972511 -2.182329047049442 0  2.331456616463011 -0.5285296485744057 0  3.654761904761905 0.5654761904761902 0  5.25 1.125 0  2.563673341677096 -2.280663329161452 0  5.126674107142857 0.1283482142857142 0  0.75 -3 0  0 -2.25 0  6 2.25 0  5.25 3 0  0.7680051888903191 -0.1384245958639337 0  1.617229471026718 -1.006949429867069 0  4.218940341429579 1.468686552856807 0  3.75 -3 0  2.25 -3 0  0.75 3 0  5.25 -3 0  6 -0.75 0  0 -0.75 0  0 0.75 0  2.25 3 0  6 -2.25 0  0 2.25 0  3.75 3 0  6 0.75 0  1.787573018358365 -2.279142327213878 0  3.195025188237337 2.273430909158844 0  2.528159645294386 1.151699106559287 0  1.041598427383826 1.322848427383826 0  1.520951704545454 0.4634232954545453 0  1.580357142857143 2.325892857142857 0  4.919642857142857 -1.361607142857143 0  4.54981623521892 -0.6483700862895494 0  2.99317863826574 0.6697091957925523 0  3.450169349029507 -0.4574865881858001 0  3.605016126014028 -1.323102984840902 0  2.745144658907412 1.882241931337371 0  0.4898065586600511 1.092777516238393 0  0.5 -1.875 0  1.217028489597945 -2.469323836800685 0  1.659912685567181 -1.604738056701542 0  5.4375 1.6875 0  5.34375 2.34375 0  4.52741779500503 2.384139265001677 0  3.375 -2.514804579549941 0  0.5446428571428571 -2.455357142857143 0  2.766554087216865 -1.745795909102064 0  4.525516559010988 0.1490283123570637 0  3.87554132162248 -0.8280516069565407 0  4.53622906132958 -1.76963146596888 0  0.4243951612903226 1.875 0  0.554851858345021 2.446861709948876 0  5.575604838709677 -1.875 0  5.445148141654979 -2.446861709948876 0  4.875 -2.575604838709677 0  1.440573466105381 1.721823466105381 0  2.193519495405082 1.631799415080963 0  5.472630128027442 -1.330813078900983 0  4.750126894286386 1.343813447143193 0  5.607142857142857 -0.375 0  2.625 2.607142857142857 0  0.3921763197810531 0.375 0  5.60901753622775 0.3750000000000001 0  1.125 2.613454943235572 0  3.701856738980915 1.163867513386733 0  3.736112850688509 1.696746876851408 0  3.519183195491339 0.06065128742606851 0  3.973620778217027 -1.693401606145563 0  0.8125 -1.444978632478633 0  1.256657745408029 -0.6381828923025001 0  0 -1.125 0  5.019997778514942 0.6475044429701156 0  4.125 3 0  1.285569332703024 0.8955310332120207 0  0 -0.375 0  0.4638922275641027 -0.5625 0  2.056635259780241 -0.07226025978024064 0  2.130475508371123 -1.000827820434028 0  2.677484372338113 -1.267299126394495 0  2.848680878891876 -0.4956836878192376 0  4.937901885089369 -0.3340245904575954 0  4.393563081308854 1.919544166973803 0  4.053859126323572 0.2813938488760716 0  1.181051704329518 0.1167440895674965 0  1.971354166666667 2.607142857142857 0  4.875 3 0  2.519350561152006 0.08093582719875507 0  3.139443301924015 -1.442524927271905 0  6 2.625 0  1.849169256239503 1.945480934753207 0  1.867196483071171 0.7892354369530077 0  1.192506522009051 -1.184888428863342 0  3.375 3 0  3.603234392481833 2.536866305538572 0  3.846752908916648 -2.537707634073423 0  2.014339897513945 -1.886932065281681 0  4.038392037966526 0.8363324773944992 0  4.421242701722609 -2.552534687860327 0  3.715389848650903 -2.108856956172843 0  2.985668138820625 1.127780908772207 0  0.4500794934449803 -1.173696061598557 0  3.366760888116476 0.8891914618875614 0  1.869163043700093 -0.6107175804171328 0  2.175114838273305 -2.53928723780967 0  3.014417665538299 -2.241523065744933 0  2.625 -3 0  2.819968145332426 -2.617202329573456 0  5.625 1.3125 0  5.563263538826679 0.814027077653358 0  5.625 3 0  2.550041671270923 0.7074928970804664 0  4.014583091741168 2.59891853892166 0  0.6440729668673318 1.499523832583132 0  5.219449799568244 -1.660557808485412 0  3.474012636702472 -0.9300738420779746 0  0.8125 -2.142857142857143 0  1.875 -3 0  4.945010515846405 2.554471797033147 0  2.611388969012422 -0.8478354915063726 0  3.223746055611014 0.3371683159691745 0  4.843939757110898 -0.9483610977948225 0  4.66556954816842 -2.220888354477256 0  4.125 -3 0  4.448108395110625 -0.2524000502731018 0  5.63671875 2.05078125 0  2.822484133964224 1.491327727709286 0  3.378213092764193 1.903125093887009 0  5.607142857142858 -0.9231200445788541 0  2.12639693023183 1.100450516019641 0  5.625 -3 0  0.375 3 0  0 2.625 0  6 -2.625 0  0.3931307155906299 -0.01856779822591927 0  0.8549199714190221 -0.5218333744252657 0  0.7651723094668359 0.253768144801553 0  1.421989550604507 -2.133299471886336 0  1.582611957351803 -2.615166692128227 0  4.420331038793115 1.133144382396504 0  0.375 -3 0  0 -2.625 0  5.078156723571596 1.54697017071479 0  1.877250715260938 -1.288801575378032 0  2.409169073010687 -1.916147168931784 0  1.146151077069952 -0.268000681695328 0  1.726784828652036 0.1335728643263411 0  2.745628549924675 0.3838821021397905 0  3.011490900297165 2.613625569196862 0  5.62463365164608 -4.137655439684362e-05 0  1.875 3 0  1.125 3 0  6 0.375 0  2.625 3 0  6 -1.125 0  6 -0.375 0  4.875 -3 0  6 -1.875 0  3.375 -3 0  1.125 -3 0  0 -1.875 0  0 0.375 0  0 1.125 0  0 1.875 0  6 1.125 0  6 1.875 0  4.813017731148975 0.9677363687196439 0  2.807371623148303 2.264962208227767 0  0.3692953377255688 0.7436406761680247 0  5.615625 2.615625 0  0.9395725521479794 0.9812935874921043 0  1.390920759130215 1.238984550166515 0  0.9588795022085095 1.672288500195331 0  0.87712392565124 -2.641031728267331 0  0.3665732993114588 -1.532068934251388 0  1.841944504733106 1.591700334213738 0  4.832970185136452 0.3385359233091246 0  4.169083540479082 -0.5746148619765254 0  5.281697083409333 -0.2046640461936881 0  4.072845380968044 1.784516523483641 0  1.293029195762321 -1.543079049035419 0  4.878733886054284 -1.720697370582964 0  3.609167475697567 -1.687579152754035 0  4.836981942878573 2.222259978217028 0  4.204938267037067 -0.9128589669335569 0  5.183079748175263 -1.111742407358677 0  1.469404041858679 2.654509729682302 0  1.22880920402559 2.273525645756405 0  4.566761045622856 -1.414165869120005 0  4.531680518427715 1.606803989975667 0  1.918929241273175 2.27471131819245 0  3.590183783343969 2.184680610175416 0  1.85683899811842 0.4533569963423589 0  1.173935704088662 0.4636872214645547 0  2.116602160898525 -2.207718541460878 0  4.51821874648995 -1.042568353750147 0  2.721551512787618 -0.1859357475290837 0  5.294921875 2.001953125 0  5.288671874999999 2.670703125 0  2.199940744527116 0.7756512213396931 0  4.090519467638897 1.163401080812838 0  2.298177083333333 2.670581371753247 0  2.484362362207526 -2.687319997637033 0  3.300530569898859 1.207053005217563 0  3.936078051808127 -1.362164062673065 0  5.341218841330105 0.5689885832563615 0  4.226314635599414 0.5638853401248238 0  2.524510956818563 1.635483567726497 0  0.3219546452225031 1.389066019009203 0  3.139061555368706 -0.3133905221155423 0  3.145569907612562 -0.6461828528638952 0  3.701427442033566 -0.2272880199383185 0  1.686782510365738 -1.934662341426927 0  2.427696494631844 1.944064773844184 0  3.901817839425732 1.422433381251312 0  2.356489883772755 -0.2025512972825912 0  4.820757576351118 -0.01647699434507374 0  3.064415631228375 1.809719380809516 0  4.643002705009462 2.69782572459795 0  4.31624250429496 2.728112685900672 0  1.520100694408069 -1.314302747998057 0  3.754559308601717 -0.5375020107416889 0  0.25 -2.0625 0  0.8125 -1.826636904761905 0  4.861738621091127 -0.6367294570749906 0  1.545149590740081 2.015832101819233 0  3.857113324620078 0.04127675193819436 0  0.3162874907704933 -0.864918315983958 0  4.21293081604216 2.352874368135467 0  3.123697687162562 -2.708090473740421 0  3.415275466010259 -2.202892416689829 0  3.601103065320932 -2.727566580522146 0  1.558629964945672 -0.5289921609136927 0  3.324859026263307 -1.198136798699183 0  2.424350759683917 -1.092246517929194 0  2.789248065239812 0.8954629970670158 0  0.8882026075771248 2.364936378889839 0  0.8066140242673685 2.679750706449505 0  4.504454978490482 0.4491616076730165 0  4.26881784709759 -0.009649566552704852 0  1.313479173834523 -2.758675889510418 0  1.120577805361368 -2.179971784090952 0  3.734048623985226 0.8602850349907256 0  3.527828882622877 1.432983527791925 0  1.959527908877504 -1.578124930685265 0  0.7602573574724077 1.220872343399509 0  0.6691217533356228 0.8531987603309893 0  1.877213035764122 -2.564340152892596 0  3.304349402914068 2.552016594979913 0  4.285565286275464 -1.569057178671076 0  4.227521511146333 -1.876903861267543 0  5.34375 1.40625 0  5.71875 1.59375 0  1.56245959534423 0.766197796710638 0  0.2458241530773257 2.4375 0  0.2794123857609179 2.138568368155198 0  5.754175846922674 -2.4375 0  5.720587614239082 -2.138568368155198 0  0.6472458227887359 2.124973059628837 0  5.124241021325378 -2.352544055105642 0  5.189172233440652 -2.675873509996353 0  5.364643151640443 -2.12768524739804 0  2.298896485720138 1.348573610321417 0  0.6008689899200503 -2.745193425346304 0  0.307092513690391 -2.651812055231556 0  0.2683745826107009 -2.363146293324415 0  0.5223214285714285 -2.165178571428571 0  0.5169611136983336 2.740349995819724 0  5.607469108596883 -2.699891746740618 0  2.138439274270545 1.947386893596098 0  1.25507379660067 1.953406658386351 0  4.135759889512124 -2.476847355718572 0  2.548249345531056 -1.538893887888457 0  2.771010284190282 -2.05339728351
[...]
<CellData  Scalars="f_26-2"> 
<DataArray  type="Float64"  Name="f_26-2"  format="ascii">-2.7445575045427775e+29   -3.3996398044020268e+29   -5.0539283109268082e+29   -4.3840674742980702e+29   -4.8384267988024399e+29   -8.8785703034010179e+29   -3.1938029892633084e+29   -4.1370655239293138e+28   -3.4603186615822581e+28   -2.7207579971860230e+29   -2.3826484816234019e+29   -4.7827350550850917e+29   -1.7712686654978016e+29   -5.8319607279915339e+29   -5.0285500762640107e+28   -3.6095104104243307e+29   -4.8455266066459603e+29   -1.1124468047304380e+28   -3.5600398739032221e+29   -2.0242956201226352e+29   -6.0933028617404587e+29   -1.4355063212484019e+29   -3.8769019715511771e+29   -2.0154928573831333e+29   -2.7668477399310384e+29   -3.5771008790239421e+29   -6.4128595991495363e+29   -2.2394856531965344e+29   -2.1950994665817099e+29   -3.3142490761595137e+29   -1.6006583173894517e+29   -1.6841932938824388e+29   -2.8279993773334462e+29   -2.6910265997232717e+29   -2.9238672262945560e+29   -3.2743946959240812e+29   -4.0522767740435981e+29   7.9082356076364330e+28   -5.0448454537982456e+29   -3.4882612910713392e+29   -1.3537991332268624e+29   -3.1281481681426424e+29   -2.2717767772907393e+29   1.0788676932669130e+29   -1.1448546184767593e+30   -5.3833085748029380e+29   -6.8315591315809789e+29   -1.7798908112905699e+29   -4.3602068539822302e+29   6.0516119460769153e+27   -4.7241393535863973e+29   -3.3319685718354436e+29   -1.7039066574340637e+29   -3.7328319278094909e+29   -3.0180808605336390e+29   -3.2602247764625094e+29   -5.0411644620222540e+29   -3.7304715002845394e+29   -4.9368321927546093e+28   -4.9007938964895646e+29   -2.0939703804651542e+29   -3.2151089452521355e+29   -4.9158267960430799e+29   -2.9319242063849712e+29   -9.5105182863352048e+28   -3.5745525723307218e+29   -5.1156104068425259e+29   -6.9887483588973872e+28   -1.4369144609364549e+29   -3.7937933318719126e+29   -2.0099535889002551e+29   -1.6401817800770406e+28   -9.1105555873117488e+28   -3.0233758594753526e+29   -2.5208573642422849e+29   -3.7229270476686564e+28   -1.6371368918829185e+29   -3.1194922718978780e+29   -5.7075659631879933e+29   -9.0695443663068452e+28   -1.8298074313327411e+29   -2.6475666095564581e+29   -3.7230108717533482e+29   -6.0035477448449061e+29   -2.2250952646343927e+29   -3.4781924553674323e+29   -1.1671837496844165e+29   -2.8929790609825060e+29   -2.8281759617036084e+29   -3.0585919544262305e+29   -3.5675848883415423e+29   -3.3782514351443583e+29   -6.2259086587825434e+29   -7.4182660098444593e+28   6.1317616203892569e+28   -5.8807928314877426e+29   -2.6643284005053353e+28   -2.3870956701674705e+29   -2.6765989390425572e+29   -1.8374925048835083e+29   -1.7556242541269853e+29   -6.2876620180162731e+28   -1.8906966296996558e+29   -1.4777712375377954e+29   -3.2553228352182610e+29   -5.5717613203536212e+29   -4.5861632703893045e+29   -2.3704797761925194e+29   -4.7366775940127477e+28   -2.0656570914542764e+29   -2.2439005475516540e+29   -1.4611961169094971e+29   -1.5853605701846011e+29   -2.4339928690680010e+29   -2.8174747843493990e+29   -5.0889662293085944e+29   -7.7113001402100471e+29   -1.4551448925880811e+29   -1.7098657638689047e+29   -7.1673809183708246e+29   -4.4279328240510095e+28   -4.1189812627484455e+29   -3.9783690944936421e+29   -1.1944677837226885e+29   -3.1922062988101066e+29   -1.6377223787306106e+29   -9.6757242885974524e+29   -2.9927171942506384e+29   -6.9887929585419661e+29   -1.5969006744266592e+29   -2.4891709734452875e+29   -3.3176449574260322e+29   -3.1595561654963994e+29   -9.3569312863494108e+28   -2.6199905253641830e+28   -1.5263208782602078e+29   -3.5600690199186906e+29   -7.5324584500332903e+29   -1.0135743954236172e+29   -4.2085400905602362e+29   -2.1545206294876936e+29   -1.9971200833477661e+29   -5.5314672018114994e+29   -5.8373305237733371e+29   -7.0572130839032333e+28   -1.7041206759453506e+30   -3.8114593662168016e+28   -4.3533928316973881e+29   -2.7720717022066013e+29   -9.2244599565130326e+28   -2.0465658617688384e+29   -2.5612654747304536e+29   -2.8060408778585662e+29   -3.7295775459304808e+29   -3.2679635722513211e+29   -2.1762628592812770e+29   -3.5728359741660594e+29   3.6342288206139342e+28   -6.2420359625826894e+29   -1.3777016268122441e+29   -5.8383528998594038e+29   -2.5480911712928747e+29   -3.1789205801621452e+29   -5.5894974487179451e+29   -1.5219554825662808e+29   -5.5635734036477958e+29   -2.6785661945621171e+29   -4.6754468141054042e+29   -2.5972896706623126e+29   -2.6083291678583172e+29   -7.0640362507701855e+28   -1.0790038321660577e+29   -3.2959824820405237e+29   -9.1640850702707519e+28   -2.3648758363474523e+29   -8.1662879747219680e+29   -2.8374391648756010e+29   -2.0835055503694722e+29   -3.6439885494056999e+29   -1.2735196865419070e+29   -1.6681277087097007e+29   -4.7274447138952904e+28   -1.2587623437174428e+29   -2.0751908516337544e+29   -7.5961433203151167e+29   -6.7279144733905864e+29   -3.9564251652320715e+29   -3.4926811508727296e+29   2.7335993327703558e+28   -2.1067282865053422e+29   -9.5619057741472772e+28   -3.6221450473299124e+29   -6.4918546793053227e+28   -2.8956055110979872e+29   -5.6184791277817871e+28   -5.4361793306752733e+29   -4.4459522541238542e+29   -3.6967663047807156e+29   -1.2459843680725615e+29   -1.6383981717178908e+29   -3.1883410848959793e+28   -3.4957241158243071e+29   -4.1823778979001485e+29   -2.9524774871087086e+29   -4.0986451143958774e+29   -2.2998560394313574e+29   -9.2397892910713061e+28   -6.1426570647020615e+29   -2.6416295192863888e+29   -3.8854478131744073e+29   4.0998243614492214e+28   -1.6498223241447187e+29   -3.6269064536261548e+29   -5.1452176801572538e+28   -6.7322350588274636e+29   -3.7662788228994626e+29   -5.2488967278402567e+29   -2.0676144170704175e+29   -1.6299202724855603e+29   -7.1467794980142533e+29   -1.2923473251605993e+29   -3.8928310258420465e+29   -6.4636830713488659e+29   -2.9794128688773350e+29   -4.1222794900051389e+29   -4.1290856807726585e+29   -5.4872614835912864e+28   -1.4512189603565112e+29   8.7285451963181812e+28   -2.1970517912707137e+29   6.0069754210607952e+27   -6.0149553126411005e+28   -1.6077880840989215e+29   -1.9698761806171813e+29   -4.9015776146734706e+29   -4.7999264047775297e+29   -3.3627311285070179e+29   -1.9707939634931541e+29   -1.2502013947561725e+29   -1.2439682703695953e+29   -6.5838305889186143e+28   -3.0489296764799090e+29   -4.4391966606980589e+29   -1.4688406745844003e+29   -5.5729802073320308e+29   -2.0083155606201719e+29   -5.7296158833085809e+29   -1.8616180037985900e+29   -1.0169899877966893e+29   4.4495742456376449e+28   -9.4456246415172044e+28   -1.0339263989761076e+29   -3.7630818946384657e+29   -2.6245550742595622e+29   -1.6475054921788554e+29   -1.2037028625777320e+29   -1.5184012194035232e+29   -2.0346120903160149e+29   6.8206459435666589e+28   -2.3170909107865272e+29   -1.3510737438418447e+29   -5.8648578180573938e+29   -2.0264852546881398e+29   -3.0027313466767299e+29   -2.4469756878351913e+29   -3.6754568898443765e+29   -1.3055176867777339e+29   -2.1786925502614373e+29   -4.7240767468248998e+29   -2.0488728721604595e+28   -2.8866493054306298e+29   -4.4910716737354208e+29   -5.4065047349496561e+29   -4.6106697117054016e+29   -2.3020682548055088e+28   -9.2935715959544249e+28   -4.6328840309974779e+28   -3.7823180164164987e+29   -2.1597797443684788e+29   -1.0078642004982256e+29   -2.7829822975115739e+29   -5.3253025807327676e+28   -4.0550477851170084e+29   -2.1438282452300473e+29   -1.1613116339526089e+29   -8.8137708305223558e+28   -3.1209418214075921e+29   -3.0748099266044827e+29   -2.4423202895662977e+29   2.6248533514558879e+28   -3.4430292487934724e+29   -3.7763543875575180e+29   3.7272346977715938e+27   -1.2498006205530988e+29   -1.5794456946922079e+29   -2.8293231688081111e+29   -2.8040598181412204e+29   -6.3511873073533573e+28   -3.2794439378921361e+29   -9.0773138629560009e+29   -4.7268794770850687e+29   -2.6760225881971001e+29   -3.0274561010033458e+29   -1.8951514308136618e+29   -9.8298071925963563e+28   -1.3512653969003332e+29   -5.8324375845360900e+29   -6.0867654673734257e+28   -2.2012729969715041e+29   -1.4715138370974718e+29   -1.8561193146286238e+29   -2.2659382584062990e+29   -4.4430190834116781e+29   -2.1776374913472792e+29   -2.7651978362710933e+29   -1.9792104953925160e+29   -2.5357908001038631e+29   -3.1085373161257450e+29   -1.9824785979802638e+29   -4.7381235715874583e+29   -5.0113742199065472e+29   -1.5166938273643863e+29   -2.6143210518677354e+29   -4.3800684900920641e+29   -1.8541922676503256e+29   -2.5668026393111997e+29   -2.6390513487450904e+29   -3.9496299526477356e+29   -3.6600304900950379e+29   2.6704828153775309e+28   -3.6533605164589945e+29   -2.4936667203613055e+29   -3.7753637934637721e+29   -4.4983169498230391e+29   -2.5927419400937927e+29   -4.0215373735179281e+29   -1.2761414822703759e+29   -1.0751735308224793e+29   -2.2883570307818352e+29   -3.3216896327986945e+29   -8.9821498118724625e+28   -1.7480563893407597e+29   -1.5637829268693584e+29   -1.4655028761077791e+29   -1.2593534109733998e+29   -3.4761098317589783e+29   -1.6572507888117262e+29   -1.0245807029839096e+29   -3.2951018686817675e+29   -1.6810544387911442e+29   -1.6733261949681478e+29   -1.8862612963387268e+29   1.7136467432497217e+29   -4.3712879253378908e+29   -4.9436930930090587e+29   -1.3396430691548430e+29   -2.0690999495314145e+29   -1.2950200671368516e+29   -7.9508515990217411e+28   -1.9733234893341101e+29   -1.3206209011427734e+29   -6.5216888820865885e+29   4.0283044484639155e+27   -2.7052369835576000e+29   -1.2074945853644642e+29   -2.8631112643723623e+29   -5.0702591519866987e+29   -6.0319455501380878e+29   -2.7188813893845502e+29   -5.7855792078017731e+29   -1.6459378700617484e+29   -4.5349521242609497e+29   -1.2461184402805595e+29   -2.4442601488147140e+29   -1.4599196599988948e+29   -2.0082493404289537e+29   -3.1961466711954058e+29   -1.6424775007978370e+29   -4.5238922382539210e+29   -2.1767561980673857e+29   -1.0645774134149845e+29   -8.5095444465678883e+28   -2.3750107184009068e+29   -7.3023643436649982e+28   -2.5452108032030354e+29   9.0818329740356410e+28   -3.0723179009389408e+29   -2.3155720432388711e+29   9.8995501056420151e+28   -3.2304321838709404e+29   -1.2982112479216060e+29   -2.1095647197451431e+29   -2.3203253164806140e+29   -3.7871731365151422e+29   -2.4267027006438717e+29   -1.8040712145184848e+29   7.1397292869760771e+28   -6.7656136416671797e+29   -3.3637956464653921e+29   -3.0110688841079534e+29   -3.0295684997967616e+29   -1.4004129531186787e+29   -5.6445063370854151e+28   -1.7294892331737604e+29   -2.7180694855983886e+29   -6.4716778929198431e+29   -2.8609108658974233e+29   -1.0095622787373625e+30   -2.6948477386060945e+29   -4.9029128981147362e+29   4.6620144378700636e+28   -2.6004176429762146e+29   -2.5833635401210522e+29   -4.9865496010520301e+28   -1.0877546283864550e+29   -3.6668412340081688e+29   -4.9784878632850865e+29   -7.0778164672657467e+28   -9.7029180943037703e+28   -1.6190332178831961e+29   -2.2065330248942896e+29   -3.9741171314519110e+29   -1.8931304145387757e+29   -6.2100743627035027e+29   -1.2607225364998756e+29   -1.5200858016743882e+29   -2.3259742430790071e+29   -6.3963229064191104e+28   6.0548412965404725e+28   -2.9600258179898470e+29   -2.3043623854840092e+29   -2.8206710597505622e+29   -1.6026960914837429e+29   -2.0882659361366005e+29   -1.9635457818091083e+28   -4.4231000323724334e+29   -2.8676382165298098e+28   -8.6522805923774573e+28   -1.8602292688177709e+29   1.0964441737851847e+27   -4.2778374577335379e+29   -3.7882604397273825e+29   -1.5881238606915336e+29   -4.6348077620092122e+29   -5.0710920819477698e+29   -3.3282714331645932e+29   -1.0800353595586693e+29   -2.7415527252764164e+29   -2.2937433413956368e+29   -2.8814062445267174e+29   -1.2534917344755148e+29   -5.1498265016631455e+29   -4.5213012281390297e+29   -3.5177792949112192e+29   -3.0216351498522975e+29   -1.7937273692281069e+28   -4.6831493568049560e+29   -2.6036462756208766e+29   -3.1991897422063928e+29   -2.7223164367025701e+29   -5.4135562360100845e+29   -1.5358700236818754e+29   -1.6618697706802227e+29   -5.3114984583371105e+28   4.6983941412927310e+28   -4.6631399087913333e+29   -2.8655643471589594e+29   -4.8169982169834180e+29   -9.4253304236905196e+29   -3.7220125026775266e+29   -2.3457969137670391e+29   -1.6077758435631441e+29   -7.4732666774387238e+28   -2.6486606528532444e+29   -4.8854696894958986e+29   -1.6093718283302034e+29   -3.3099477433629057e+29   -2.2304666032732562e+29   -2.6136342492514815e+29   -1.4940978890834563e+29   -5.6177785853891363e+29   -3.2508203864766499e+29   -3.2669707113462337e+29   -2.0279119231450878e+29   -2.8877629346763701e+29   -8.3101629538134193e+29   -3.3416257890593472e+29   -2.9994713144942148e+29   -2.0911909845646664e+29   -1.9809170897280134e+29   -2.1725762349655917e+29   -9.9643877498498359e+28   -1.5532416519218165e+29   -6.4494266113901759e+28   -1.1149704940372068e+29   -2.0459173182601879e+29   -4.4287469772948317e+29   3.4553196658193357e+28   3.5283003055439456e+29   -2.4828350829164284e+29   -4.6419851971012684e+28   -2.4757647831449705e+29   -1.9750706180505145e+29   -1.4029422670521583e+29   -3.6430843854447282e+29   -3.3830435580735372e+29   -5.9571903240754858e+29   -8.5985924328192653e+28   -1.9276082217087212e+29   -2.0717213376592088e+29   -7.8202112178129941e+27   5.2565444480157493e+28   -4.5873248401070472e+29   -4.2051981215802717e+28   -1.4560178083323512e+29   -4.3828706414544752e+29   -5.1403568646508050e+29   -4.2382947274994267e+29   -1.6257357958766738e+28   -7.4423982184122588e+29   -2.3475979699705949e+29   -5.7706140513553329e+29   -1.5609581279337312e+28   -7.2539965643899012e+28   -1.8916042301290179e+29   -1.8611883240423268e+29   -4.3212309716921158e+29   -2.5036957092669344e+29   -1.1641788807753654e+29   -1.4653995961783782e+29   -3.4087142510017961e+29   -7.4732130004343063e+28   -8.8793686936752442e+28   6.0603157980333558e+26   6.4656056391255518e+28   -3.4510159543570846e+28   -2.0933883545938889e+29   -3.6892692021004997e+29   -7.1456689878520828e+29   -1.4831079093094246e+29   -1.0341004211894740e+29   -9.3846722593966764e+28   -5.3645408839817847e+29   -3.2950693497741219e+29   1.8381730660819030e+29   -2.7307571157577619e+29   -1.1405490618868136e+29   -3.1866732569480674e+29   -3.5262289766891533e+29   -3.1906543624361919e+29   -3.1704683409878344e+29   -2.5835324113556274e+29   -4.2533639300423229e+29   -2.2113529623841755e+29   -2.7036834479202901e+29   5.5059991918065943e+28   -2.5265707559017673e+29   -2.2277606707704030e+29   -3.2594923185581797e+29   -5.1215248216678650e+29   -1.9038361557086032e+29   -1.6157311500780931e+29   -3.5512797271781825e+29   -1.8275174915912885e+29   -4.3082095301906670e+29   -2.4270525926188263e+29   -3.6326827211886294e+29   -2.2084748812335941e+27   -1.3857237603410933e+29   -1.9119210929620830e+29   -1.5345121536705616e+29   -1.4113586481430709e+29   -1.9153217992723865e+29   -2.3145473101433067e+29   -2.2555351413125634e+29   -3.5828808005002453e+29   -5.3089554844239122e+29   -1.8164862866989472e+28   -3.3028428864823711e+29   -1.4606708699100983e+29   -2.4662445324795595e+29   -3.2290044743109253e+29   -5.4933680000023566e+29   -1.4843780753394206e+29   -4.9583641822445415e+29   -1.7025910639863058e+29   -2.3309612402663373e+29   -6.9987082638575153e+28   1.6848786902545887e+26   -2.0861937968951758e+29   -2.3233740233916064e+29   -4.2417270426958886e+29   -4.5674972101967706e+28   -5.4453035839126164e+28   -1.0278290450177468e+29   -2.4877464935576720e+29   -3.8199547905824470e+29   -7.6360622143080552e+29   -6.5358096266829308e+28   -8.6429329650374795e+28   -2.6679734505689853e+29   -1.8240948249218859e+29   -4.7601631779520736e+29   -1.8955226827540966e+29   -3.1826136272722066e+29   -8.3293539768590981e+28   -5.9228897794116998e+29   -3.4257179397601576e+29   -2.7090141685181368e+29   -3.7354446738343026e+29   -4.3097167917321208e+29   -3.5246949196797160e+29   -1.4115001287964117e+29   -1.9310796134832306e+29   -1.7414375186908670e+29   -2.1226568668613709e+29   -2.3909441150448269e+29   -1.1024851140400088e+29   -1.8791793477523205e+29   -2.6626297020376177e+29   -2.8450098506332423e+29   -3.7862164807178851e+28   -3.0451164908085108e+29   -2.3177048790683281e+29   -4.3593474427705727e+29   -1.7504142653400609e+27   -1.1406702529348910e+29   -2.9522066965910381e+29   -5.7773390480221412e+28   -1.5039070983497869e+29   -3.3039229631692355e+28   -1.3687311349393808e+29   -1.7002686233637865e+29   -3.3278558100050624e+28   -8.1105721992528659e+28   -4.6621745394177421e+29   -2.3191940207222352e+29   -1.6985347106696034e+29   -2.0922828642485760e+29   -2.3128383223116259e+29   -2.9355208574865350e+29   -1.3917785693167086e+29   4.0711543187948446e+27   1.6776669862116013e+28   -1.5277773874374592e+29   -2.3279725723997315e+28   -1.2443571515571799e+29   1.1307281304639385e+28   -2.5488822922142971e+29   -2.2230534504262269e+29   -2.4470003109197451e+27   -1.4498359494671189e+29   -2.0037220479235784e+29   -1.0961526287848027e+29   -2.2250113233877414e+29   -3.7667844386832059e+29   -4.5905622495797410e+29   -1.4939734663741497e+29   -4.9545714239254559e+29   -2.8578914739272254e+29   -1.7260186324853433e+29   -4.3975606560409964e+29   -3.0373337093352359e+29   -3.5411412760251694e+28   -7.4003285924209734e+27   -1.6081184106137837e+29   -3.7686711641114955e+29   -2.2628430212127510e+29   -1.5472779812504138e+29   -2.0960955670820800e+28   -1.0566754386883043e+29   -2.4538258953224266e+29   -1.0592556767737271e+29   -2.4101381522056830e+28   7.8263605264500840e+28   -1.4060507801909611e+29   -2.2328090114442060e+29   -5.6678211421149927e+28   -4.1426867691580708e+28   -3.3334943367245945e+29   2.1074058259246941e+28   -2.3520128222068988e+29   -2.6479572210827985e+28   -2.6419317966627474e+29   -2.0679349941620197e+29   -1.7856704729206791e+29   -1.8833922301624750e+29   -3.7577712999973756e+28   -1.9171264699156460e+29   -6.0048421419369909e+28   1.5781174780250684e+27   2.8033841169108688e+28   5.8523525709002483e+28   -3.0028117171330455e+29   -1.5955586061521987e+29   -2.0302337210225898e+29   -5.4249841415076592e+28   1.1674110005160239e+29   -1.4673103385900909e+29   -5.2335988279112995e+29   -1.9442823784887451e+29   -2.3007957708146037e+29   -2.1434707790673829e+29   9.8489611757314359e+27   -4.4533249293482265e+28   6.7470989295689030e+28   -1.6785425288541005e+29   -1.6171454353971816e+29   -3.3317508310965505e+29   -3.4689506914943152e+29   -2.9515820768181782e+29   -4.0895358001384619e+29   -2.5447631150265548e+29   -2.8552252946235932e+29   -3.4354562575021854e+29   -4.8119362955124723e+29   -3.1940974747609409e+29   -1.6172986275292305e+29   -2.9563992219161869e+29   -3.9464071914642877e+29   -8.1302128668443478e+28   -2.4777811470781315e+29   -1.9206290981989000e+29   -2.7599348892513073e+29   -1.3948934200749029e+29   -5.1744146350502099e+27   -3.0718164364336914e+29   -6.2972136059278606e+29   -2.3663081994822109e+29   -7.6527064039330559e+28   -2.6044083954761059e+29   -4.4412730006371393e+26   -9.0002783274698397e+28   -4.7289638293033308e+28   4.3168547846613772e+28   -8.2728652474006241e+28   -3.3699739453817484e+28   -2.5683490775909086e+29   -2.9960121574445320e+29   -3.2908476425944403e+28   -1.7210994355277276e+29   -3.1365103480081137e+29   8.6486033470345911e+28   2.3525260075410342e+29   -3.2983300343558677e+29   2.0550151823243426e+29   -2.8736040981393364e+29   -3.5681666260299057e+29   -7.4369264039650087e+28   2.5514848387766799e+28   -4.2470494309388153e+29   -1.4861696437662353e+29   6.5985558019693497e+27   -2.9677922926950657e+29   -1.9972285803000835e+29   -3.2006681532221114e+28   -4.0860657488571770e+29   -2.1608698018137698e+29   -4.6937342165515824e+28   -1.3066517910578214e+29   -8.7801047375618435e+28   -1.9142479009167081e+29   -2.0962131170119828e+29   -1.3662223462284730e+29   -3.6333288891845725e+29   -7.4597120452895924e+28   -2.3545738767766984e+28   -3.154984586538097