<?xml version="1.0"?>
<VTKFile type="UnstructuredGrid"  version="0.1"  >
<UnstructuredGrid>
<Piece  NumberOfPoints="2534" NumberOfCells="4892">
<Points>
<DataArray  type="Float64"  NumberOfComponents="3"  format="ascii">0 3 0  0 -3 0  6 -3 0  6 3 0  3 -3 0  6 0 0  3 3 0  0 0 0  3 0 0  0 -1.5 0  1.5 -3 0  1.5 3 0  0 1.5 0  6 -1.5 0  4.5 -3 0  6 1.5 0  4.5 3 0  4.25 -1.25 0  1.75 1.25 0  2.25 -1.5 0  4.5 0.75 0  1.541666666666667 -0.2083333333333333 0  3.219827586206896 1.521551724137931 0  1.125 -1.875 0  4.875 1.875 0  0.8702651515151515 0.631628787878788 0  2.25 2.214285714285714 0  3.316176470588236 -1.904411764705882 0  5.214285714285714 -0.75 0  5.03125 -2.03125 0  0.96875 2.03125 0  4.041666666666667 -0.2083333333333333 0  0.8205128205128206 -0.9134615384615387 0  3.942582294752138 2.189194098250713 0  3.061487638533674 -0.968243819266837 0  2.192708333333333 0.4427083333333334 0  4.157850026972511 -2.182329047049442 0  2.331456616463011 -0.5285296485744057 0  3.654761904761905 0.5654761904761902 0  5.25 1.125 0  2.563673341677096 -2.280663329161452 0  5.126674107142857 0.1283482142857142 0  0.75 -3 0  0 -2.25 0  6 2.25 0  5.25 3 0  0.7680051888903191 -0.1384245958639337 0  1.617229471026718 -1.006949429867069 0  4.218940341429579 1.468686552856807 0  3.75 -3 0  2.25 -3 0  0.75 3 0  5.25 -3 0  6 -0.75 0  0 -0.75 0  0 0.75 0  2.25 3 0  6 -2.25 0  0 2.25 0  3.75 3 0  6 0.75 0  1.787573018358365 -2.279142327213878 0  3.195025188237337 2.273430909158844 0  2.528159645294386 1.151699106559287 0  1.041598427383826 1.322848427383826 0  1.520951704545454 0.4634232954545453 0  1.580357142857143 2.325892857142857 0  4.919642857142857 -1.361607142857143 0  4.54981623521892 -0.6483700862895494 0  2.99317863826574 0.6697091957925523 0  3.450169349029507 -0.4574865881858001 0  3.605016126014028 -1.323102984840902 0  2.745144658907412 1.882241931337371 0  0.4898065586600511 1.092777516238393 0  0.5 -1.875 0  1.217028489597945 -2.469323836800685 0  1.659912685567181 -1.604738056701542 0  5.4375 1.6875 0  5.34375 2.34375 0  4.52741779500503 2.384139265001677 0  3.375 -2.514804579549941 0  0.5446428571428571 -2.455357142857143 0  2.766554087216865 -1.745795909102064 0  4.525516559010988 0.1490283123570637 0  3.87554132162248 -0.8280516069565407 0  4.53622906132958 -1.76963146596888 0  0.4243951612903226 1.875 0  0.554851858345021 2.446861709948876 0  5.575604838709677 -1.875 0  5.445148141654979 -2.446861709948876 0  4.875 -2.575604838709677 0  1.440573466105381 1.721823466105381 0  2.193519495405082 1.631799415080963 0  5.472630128027442 -1.330813078900983 0  4.750126894286386 1.343813447143193 0  5.607142857142857 -0.375 0  2.625 2.607142857142857 0  0.3921763197810531 0.375 0  5.60901753622775 0.3750000000000001 0  1.125 2.613454943235572 0  3.701856738980915 1.163867513386733 0  3.736112850688509 1.696746876851408 0  3.519183195491339 0.06065128742606851 0  3.973620778217027 -1.693401606145563 0  0.8125 -1.444978632478633 0  1.256657745408029 -0.6381828923025001 0  0 -1.125 0  5.019997778514942 0.6475044429701156 0  4.125 3 0  1.285569332703024 0.8955310332120207 0  0 -0.375 0  0.4638922275641027 -0.5625 0  2.056635259780241 -0.07226025978024064 0  2.130475508371123 -1.000827820434028 0  2.677484372338113 -1.267299126394495 0  2.848680878891876 -0.4956836878192376 0  4.937901885089369 -0.3340245904575954 0  4.393563081308854 1.919544166973803 0  4.053859126323572 0.2813938488760716 0  1.181051704329518 0.1167440895674965 0  1.971354166666667 2.607142857142857 0  4.875 3 0  2.519350561152006 0.08093582719875507 0  3.139443301924015 -1.442524927271905 0  6 2.625 0  1.849169256239503 1.945480934753207 0  1.867196483071171 0.7892354369530077 0  1.192506522009051 -1.184888428863342 0  3.375 3 0  3.603234392481833 2.536866305538572 0  3.846752908916648 -2.537707634073423 0  2.014339897513945 -1.886932065281681 0  4.038392037966526 0.8363324773944992 0  4.421242701722609 -2.552534687860327 0  3.715389848650903 -2.108856956172843 0  2.985668138820625 1.127780908772207 0  0.4500794934449803 -1.173696061598557 0  3.366760888116476 0.8891914618875614 0  1.869163043700093 -0.6107175804171328 0  2.175114838273305 -2.53928723780967 0  3.014417665538299 -2.241523065744933 0  2.625 -3 0  2.819968145332426 -2.617202329573456 0  5.625 1.3125 0  5.563263538826679 0.814027077653358 0  5.625 3 0  2.550041671270923 0.7074928970804664 0  4.014583091741168 2.59891853892166 0  0.6440729668673318 1.499523832583132 0  5.219449799568244 -1.660557808485412 0  3.474012636702472 -0.9300738420779746 0  0.8125 -2.142857142857143 0  1.875 -3 0  4.945010515846405 2.554471797033147 0  2.611388969012422 -0.8478354915063726 0  3.223746055611014 0.3371683159691745 0  4.843939757110898 -0.9483610977948225 0  4.66556954816842 -2.220888354477256 0  4.125 -3 0  4.448108395110625 -0.2524000502731018 0  5.63671875 2.05078125 0  2.822484133964224 1.491327727709286 0  3.378213092764193 1.903125093887009 0  5.607142857142858 -0.9231200445788541 0  2.12639693023183 1.100450516019641 0  5.625 -3 0  0.375 3 0  0 2.625 0  6 -2.625 0  0.3931307155906299 -0.01856779822591927 0  0.8549199714190221 -0.5218333744252657 0  0.7651723094668359 0.253768144801553 0  1.421989550604507 -2.133299471886336 0  1.582611957351803 -2.615166692128227 0  4.420331038793115 1.133144382396504 0  0.375 -3 0  0 -2.625 0  5.078156723571596 1.54697017071479 0  1.877250715260938 -1.288801575378032 0  2.409169073010687 -1.916147168931784 0  1.146151077069952 -0.268000681695328 0  1.726784828652036 0.1335728643263411 0  2.745628549924675 0.3838821021397905 0  3.011490900297165 2.613625569196862 0  5.62463365164608 -4.137655439684362e-05 0  1.875 3 0  1.125 3 0  6 0.375 0  2.625 3 0  6 -1.125 0  6 -0.375 0  4.875 -3 0  6 -1.875 0  3.375 -3 0  1.125 -3 0  0 -1.875 0  0 0.375 0  0 1.125 0  0 1.875 0  6 1.125 0  6 1.875 0  4.813017731148975 0.9677363687196439 0  2.807371623148303 2.264962208227767 0  0.3692953377255688 0.7436406761680247 0  5.615625 2.615625 0  0.9395725521479794 0.9812935874921043 0  1.390920759130215 1.238984550166515 0  0.9588795022085095 1.672288500195331 0  0.87712392565124 -2.641031728267331 0  0.3665732993114588 -1.532068934251388 0  1.841944504733106 1.591700334213738 0  4.832970185136452 0.3385359233091246 0  4.169083540479082 -0.5746148619765254 0  5.281697083409333 -0.2046640461936881 0  4.072845380968044 1.784516523483641 0  1.293029195762321 -1.543079049035419 0  4.878733886054284 -1.720697370582964 0  3.609167475697567 -1.687579152754035 0  4.836981942878573 2.222259978217028 0  4.204938267037067 -0.9128589669335569 0  5.183079748175263 -1.111742407358677 0  1.469404041858679 2.654509729682302 0  1.22880920402559 2.273525645756405 0  4.566761045622856 -1.414165869120005 0  4.531680518427715 1.606803989975667 0  1.918929241273175 2.27471131819245 0  3.590183783343969 2.184680610175416 0  1.85683899811842 0.4533569963423589 0  1.173935704088662 0.4636872214645547 0  2.116602160898525 -2.207718541460878 0  4.51821874648995 -1.042568353750147 0  2.721551512787618 -0.1859357475290837 0  5.294921875 2.001953125 0  5.288671874999999 2.670703125 0  2.199940744527116 0.7756512213396931 0  4.090519467638897 1.163401080812838 0  2.298177083333333 2.670581371753247 0  2.484362362207526 -2.687319997637033 0  3.300530569898859 1.207053005217563 0  3.936078051808127 -1.362164062673065 0  5.341218841330105 0.5689885832563615 0  4.226314635599414 0.5638853401248238 0  2.524510956818563 1.635483567726497 0  0.3219546452225031 1.389066019009203 0  3.139061555368706 -0.3133905221155423 0  3.145569907612562 -0.6461828528638952 0  3.701427442033566 -0.2272880199383185 0  1.686782510365738 -1.934662341426927 0  2.427696494631844 1.944064773844184 0  3.901817839425732 1.422433381251312 0  2.356489883772755 -0.2025512972825912 0  4.820757576351118 -0.01647699434507374 0  3.064415631228375 1.809719380809516 0  4.643002705009462 2.69782572459795 0  4.31624250429496 2.728112685900672 0  1.520100694408069 -1.314302747998057 0  3.754559308601717 -0.5375020107416889 0  0.25 -2.0625 0  0.8125 -1.826636904761905 0  4.861738621091127 -0.6367294570749906 0  1.545149590740081 2.015832101819233 0  3.857113324620078 0.04127675193819436 0  0.3162874907704933 -0.864918315983958 0  4.21293081604216 2.352874368135467 0  3.123697687162562 -2.708090473740421 0  3.415275466010259 -2.202892416689829 0  3.601103065320932 -2.727566580522146 0  1.558629964945672 -0.5289921609136927 0  3.324859026263307 -1.198136798699183 0  2.424350759683917 -1.092246517929194 0  2.789248065239812 0.8954629970670158 0  0.8882026075771248 2.364936378889839 0  0.8066140242673685 2.679750706449505 0  4.504454978490482 0.4491616076730165 0  4.26881784709759 -0.009649566552704852 0  1.313479173834523 -2.758675889510418 0  1.120577805361368 -2.179971784090952 0  3.734048623985226 0.8602850349907256 0  3.527828882622877 1.432983527791925 0  1.959527908877504 -1.578124930685265 0  0.7602573574724077 1.220872343399509 0  0.6691217533356228 0.8531987603309893 0  1.877213035764122 -2.564340152892596 0  3.304349402914068 2.552016594979913 0  4.285565286275464 -1.569057178671076 0  4.227521511146333 -1.876903861267543 0  5.34375 1.40625 0  5.71875 1.59375 0  1.56245959534423 0.766197796710638 0  0.2458241530773257 2.4375 0  0.2794123857609179 2.138568368155198 0  5.754175846922674 -2.4375 0  5.720587614239082 -2.138568368155198 0  0.6472458227887359 2.124973059628837 0  5.124241021325378 -2.352544055105642 0  5.189172233440652 -2.675873509996353 0  5.364643151640443 -2.12768524739804 0  2.298896485720138 1.348573610321417 0  0.6008689899200503 -2.745193425346304 0  0.307092513690391 -2.651812055231556 0  0.2683745826107009 -2.363146293324415 0  0.5223214285714285 -2.165178571428571 0  0.5169611136983336 2.740349995819724 0  5.607469108596883 -2.699891746740618 0  2.138439274270545 1.947386893596098 0  1.25507379660067 1.953406658386351 0  4.135759889512124 -2.476847355718572 0  2.548249345531056 -1.538893887888457 0  2.771010284190282 -2.05339728351
[...]
<CellData  Scalars="f_26-2"> 
<DataArray  type="Float64"  Name="f_26-2"  format="ascii">3.1223604252327411e+06   -1.6829282121845923e+07   1.5893692705203010e+07   -5.3103735082757724e+06   -2.6636728587194537e+06   -1.0331392587548475e+06   7.5120508572230209e+06   -2.7028861792332487e+05   -2.5917103286145426e+07   -4.6395593362882722e+05   -4.4975005005511539e+06   1.0931050446534336e+07   -1.8557632365292490e+07   1.2491827787558647e+07   2.9992354636714004e+07   -2.4780285502006840e+06   -9.2194019662572835e+06   6.4898871142035816e+06   -4.4477587980952673e+06   1.4074507591568183e+07   9.9700164941130672e+06   -4.8113789457999375e+06   -1.9212710167601027e+07   -2.4749310185681589e+07   -7.4445441210889781e+05   -1.0454640275107399e+07   -2.8089735236177538e+06   8.9352695758182220e+06   2.0859506061519188e+05   -1.4440626656585898e+07   -1.3714725816354113e+07   -2.9595555967879578e+07   -1.1189331352054603e+07   -1.7395434463053510e+07   -9.5935032381575871e+06   8.0071777525644396e+06   6.3899002211379376e+05   -2.0840551663439206e+06   -1.0527003277210472e+07   4.9253143203605935e+06   2.3554745236496869e+06   6.0614624640116310e+06   2.0193254594669204e+07   2.0371590600238521e+07   4.8469886648710063e+06   1.4996881569723824e+07   1.3861979161718482e+07   -1.5016106691615555e+07   1.5284221343485676e+07   1.6010503949493496e+07   1.2807508352553219e+07   8.5937304237002344e+05   -6.2751903777014399e+06   1.5768638765646299e+07   1.3388452647184131e+06   1.5151189593659701e+07   3.1920322569729905e+06   1.8307688953388520e+07   -2.2599350173241287e+07   -1.1686136707846099e+06   9.3133919216984473e+06   -2.6177513807816368e+07   2.6198366216991576e+06   3.5737396536709950e+06   -7.3513826571028084e+06   -9.7889018399964913e+05   -3.4268940751097456e+07   -1.3842782720955633e+07   1.5758665315429170e+07   -1.0720680176925354e+07   1.0925480400997916e+07   -1.9079065402095960e+06   -1.2878920203389246e+07   -1.0721670454484308e+07   2.1116823798632845e+06   -7.0624846106199836e+06   4.1736503928005002e+06   8.2390703080791887e+06   -3.8388582350313021e+06   -1.3944211783964491e+07   -3.5721043962909807e+06   1.1905297230631211e+06   4.6056809873861102e+06   2.6713787948291549e+06   -1.2162108757534279e+07   2.4438092998455424e+07   -5.7224948097671056e+06   -8.5226121101497523e+06   9.6803446133477986e+06   1.1149018259920150e+07   -2.1233631746651962e+07   -4.2032295477186646e+06   -5.6481597846183907e+06   -2.7303624924133355e+06   -6.7154490992023908e+06   -1.0824706438425452e+07   -3.8897769332729918e+06   1.3214274298652316e+07   6.3370383513583541e+06   -3.0271056995962984e+06   1.8094376365174241e+07   1.4318884786908997e+07   -2.6882648740663467e+05   6.1821411617226212e+05   -9.6269486927632671e+06   -2.7335290342642736e+07   -1.5471817740934428e+06   -7.2661238211193159e+06   2.7635001523161051e+06   3.4636956174640432e+06   -3.1170372601671878e+05   9.3621622270413414e+06   -1.8894497537566745e+06   2.2783004122739504e+06   -4.1137202821258351e+07   -1.4316654843114063e+07   2.7082100741233458e+06   1.6530362038600584e+06   -2.5207561062826519e+06   -1.9786804271908835e+07   7.6371419351719897e+06   -5.9258872193295732e+06   7.7142567888500569e+06   -3.6477594241108005e+06   -3.4198576126191770e+03   -1.3852903883259313e+07   1.0809207777237883e+07   -4.9146444952342613e+06   -2.8043007631654955e+07   -1.0204529192417836e+07   -7.0497553470354276e+06   -7.5361180408181036e+06   -1.9133586630100101e+07   2.5876318096334176e+05   -1.1467704804696739e+07   -6.4367271549408196e+05   -2.8099805991990152e+06   -1.7074574418453153e+06   -5.5094257818323364e+06   -9.0978385579957941e+05   -2.2501269811963006e+06   7.9688915378673980e+06   2.1442683072357949e+07   1.2991422098604864e+06   -1.4536937719368182e+07   -2.4774864832627685e+06   8.5380396982036326e+06   -1.4180793281285185e+07   -1.2244653632228674e+07   5.7002905271796407e+06   -8.5290853379929457e+06   -5.9462656910720849e+06   -2.7287440377427014e+06   1.8059956923535722e+06   6.9098410496297451e+06   8.3636986799444561e+05   9.1083366071344502e+06   -5.4785585153853698e+06   9.9320473343745209e+06   9.6153722894353103e+06   -1.3574716021397519e+06   2.4620789478747986e+07   1.9500860574557886e+07   -1.2763489090296123e+07   6.7433056274442505e+06   4.8022729026547065e+06   -9.1518971458005230e+05   -1.0816027964886660e+07   -1.0660604273608953e+07   1.1881447833161762e+06   5.2168431334091153e+05   -8.2484123988106288e+06   -1.3412391836904356e+07   1.4948721293895945e+06   -9.7813596418500450e+06   -2.3880168358086604e+06   -2.9814506192701612e+07   -1.4553434644167963e+07   -2.0117242899578240e+07   3.3058986359272189e+06   5.1384049239768395e+06   -1.2780014090268817e+07   7.8125153926450107e+06   -6.2948413754147319e+06   -3.8309078610866331e+06   -1.6028317822620648e+05   -1.1438317715096345e+07   4.6432545251035009e+05   -1.6778626450870905e+07   1.9309760631679231e+06   -5.0641480453263912e+06   -1.9405965464686614e+07   -2.0272740264622424e+07   2.3097271362199102e+07   8.2852064494243981e+06   1.3977980535175448e+07   -3.4532182297267104e+06   9.8949566828117743e+06   -1.0421936677202106e+07   -3.4065757015415193e+06   -9.7905769631713331e+06   -4.1454801169741978e+06   5.8427733181097088e+06   7.4522392793212784e+06   4.0412679423580891e+06   1.7263185372495013e+06   -2.8728395288470794e+07   -2.6050786544223153e+06   -2.5489987838065591e+07   -1.3194996148019617e+07   1.0838327718509141e+07   1.6889572996078007e+07   -4.5207925279902865e+05   -5.6663997711623935e+06   1.5207568848270869e+07   1.5934834994663563e+05   7.0274437855657069e+06   4.2339118947808165e+06   2.3402756239878867e+07   -1.0358057229970742e+07   -3.5493693966501378e+06   -2.1534130502105139e+07   -1.6551861074014468e+07   5.5719649609341407e+06   -3.6201862445021044e+06   6.2546336052541109e+06   6.6282685419672467e+06   4.5024475941314753e+06   -1.4912309632791558e+06   1.2389675920858014e+07   1.4966515304406155e+07   -1.8717729337060984e+07   -2.3163156110936891e+07   -1.8300650937295139e+06   -8.4937089850497879e+06   -9.3233637418560069e+06   1.0781866422918467e+07   6.9877443528558891e+06   -1.2124621654446077e+07   -6.0922298922438938e+06   -9.4716964962965902e+06   -5.2106371321232175e+04   5.2135848608255731e+06   3.7397791238279832e+06   -9.9035753126155902e+06   4.0480276218867331e+05   -1.8021263417206153e+07   3.8093497601830522e+06   -1.8673043732821243e+06   1.3537261614809516e+06   -8.2931916607497903e+06   -2.0332099055785626e+07   3.9929751896832528e+05   8.9572030639239307e+06   -1.6995771904933557e+07   -1.4311781796984579e+07   -2.8489748206006843e+04   -3.1379352901740842e+07   -6.6312854706263151e+06   -3.5818572751835445e+06   1.9202903580083173e+07   9.2602228025824316e+06   1.1797458652541017e+07   7.2796076021708231e+06   2.3630578736686815e+07   1.7099671145159412e+07   1.9066264211428627e+07   -1.2322874214247694e+07   -2.8998117231484301e+07   5.8133141526927827e+06   8.7400039106558748e+06   -1.1461331254156163e+07   -1.2335767392222062e+07   -6.8099598724539317e+06   -6.6844169363031620e+06   -1.2552385266769797e+07   -7.3318679732828829e+06   1.1260185620906107e+07   2.5229535001508892e+06   3.0399743336712187e+06   3.0946203796410267e+06   -3.6875080617261236e+06   -4.3338973250715446e+05   -1.4753506850344034e+07   -2.0649934351937637e+07   -6.3179811378406547e+06   -5.9213321965588732e+06   -1.1154146154472183e+07   4.0967070076611848e+06   -1.0058909545937942e+07   7.3046233629765352e+06   3.5982633896290056e+07   6.1330446167214308e+06   7.7023242360523464e+06   -2.6047216135880798e+07   -1.8963578495299171e+06   1.1676114668573864e+07   9.8872882846977208e+06   6.0240677235084753e+06   1.3473281232032960e+07   -3.8283388531372853e+07   2.4324158587996285e+07   -1.6373877447503634e+07   -4.5051031994195040e+06   -1.0828682178870237e+07   -1.3983255243248077e+07   -8.3949795431218036e+06   -1.6401559024501324e+06   -4.7838114549611490e+06   -5.8458969827814903e+06   1.0009360069708370e+07   -6.8558700451910226e+06   7.5824547664663168e+06   8.0751602742725583e+06   1.3085916106431829e+07   1.5774330031477576e+07   -8.2518086303541968e+06   2.3947323158856397e+06   3.2409681717450800e+06   -4.1018737242983505e+06   -2.7402549852349907e+06   -1.0762249926553540e+07   1.4144054259124154e+07   -5.0477852623985410e+06   -1.7343719167997867e+07   6.4620922600855688e+06   -1.9164819486028817e+07   -1.1448324799370144e+07   -2.3870552734613679e+07   5.0492160955392905e+06   5.2635636787567306e+06   1.4841049150348766e+07   2.1865740265526172e+07   -2.0090196512005616e+06   6.5492081402049437e+06   2.6308830556468423e+06   -1.9789428566752523e+07   9.6992613516392279e+06   -5.0927767874178023e+05   3.9237822344556330e+06   6.7147490718095247e+06   1.4049903237940228e+07   5.0799339475856014e+06   1.7246119686152088e+06   1.4440206745460771e+07   -2.1280804054524608e+07   -1.6523254545080988e+07   -1.8311334662970375e+07   -3.0620244584339401e+06   -5.9663353800984798e+06   6.6783834752969013e+05   -2.5417517301494088e+06   1.2666188230530962e+06   -1.1508686338355497e+07   -3.6270658704934809e+06   7.1733566469043968e+06   9.9013078453095220e+06   -9.4807944715091540e+05   3.0500162276161559e+07   7.1240639198620170e+06   1.2798381157634895e+07   -1.9340696683401202e+06   7.0889227648039591e+06   5.3757059381767316e+06   -4.0886496559895789e+06   -9.0076900837098323e+06   -5.7906736357894391e+06   6.8271706598516926e+06   4.0039954111504653e+06   -2.7832978176115761e+06   -1.3237561848443164e+07   2.1932426065146536e+07   -1.3648733008337957e+06   2.8459065376211628e+06   1.1056525985789206e+07   -1.6980948343059927e+07   -3.1024647047059733e+07   -2.7296076964570554e+06   -4.0855659163028230e+06   4.2397945896120332e+06   1.3486747095728111e+07   2.7431740036089178e+07   1.1722094190478144e+07   8.9628865424375739e+06   4.7728218253375526e+05   -1.4721582520937707e+07   4.2144563120346284e+06   -3.6176169754913766e+06   4.6691132257461771e+06   -4.7210404704493387e+06   -2.6518399856268155e+05   -4.5401648915114906e+06   8.9111266983936895e+06   -6.6805535156054161e+06   -1.4749676399907756e+06   -9.0465422936127298e+06   -2.1551901265908912e+07   -1.0230125319184527e+07   5.0178760264035398e+06   9.2690362213854324e+06   1.5407395217915827e+07   6.5149658394185000e+05   -1.0578926067691956e+07   -8.6109917389461957e+06   9.4138947617800999e+06   -3.9087909848518698e+06   6.1498246396503290e+06   -1.7868504069465589e+07   -1.3852450905469498e+07   -5.1116436814508382e+06   5.9190365350658102e+06   -1.2424195968538020e+07   -2.9578209724330191e+07   8.5175722192920092e+06   4.2254299976792708e+06   7.7639179698947845e+06   -4.3402018886362724e+06   -8.6517043451563306e+06   9.5985850926483180e+06   -9.5961397486069389e+06   7.3199377930342769e+06   -1.0645184979708204e+07   -5.2904172965697506e+06   -1.0350451573643694e+07   8.0374741591959354e+06   1.4431692856526820e+07   1.5249110194830015e+07   -2.3449050470392983e+06   -1.2686403514987554e+07   -1.8762495429407462e+07   -9.3808328588670213e+06   -1.0638376868243778e+07   -3.3853521643491765e+06   -1.5487728332452493e+07   -2.9956655386894558e+07   3.4480025714014932e+06   -5.5988567558833538e+06   -3.3960786773595639e+07   -2.7592925169663493e+07   -1.0045914535704989e+07   -1.6350214723791359e+07   -2.3507727477242962e+07   -5.9915378879611073e+06   4.4362934774941541e+06   -2.1975013998302240e+07   1.9045083993760645e+07   2.2590750219486835e+06   2.1545385645744861e+06   -2.0374968123414285e+07   1.1661721527205378e+07   -4.8929392884520842e+06   -2.1052963179030898e+06   1.1764013888108628e+06   -1.1179966331605513e+07   2.7023163009035387e+06   3.7743643751640185e+06   -6.7870320606718538e+06   -7.8324583725518240e+06   -1.4526278218603080e+07   1.3582949223940333e+07   2.0546155490079679e+05   -1.7136764194052778e+06   1.7716873010160521e+07   9.3565950509668160e+06   -1.7739952769588458e+06   9.5682070878527854e+06   1.0705417586383965e+07   5.2997164108293066e+06   -5.5384550585485436e+06   -1.5624721528644748e+06   -7.1566047213726221e+06   -3.2594601006383118e+06   -1.2386989961690446e+06   -6.0901303287013518e+06   -3.0411467069271137e+06   -1.1636052775705870e+07   -1.8501904538741492e+07   -1.1974982123288451e+07   -2.4442563677536924e+06   -8.9667878132357225e+06   -2.2746509193188097e+07   2.2985709525828771e+06   7.3609972380402908e+06   2.7731267083746796e+06   2.5236863059245199e+06   -2.0971520000000000e+06   -6.0978806594627053e+06   4.5894561074520266e+06   -1.8005224835496895e+07   -1.0085676620257076e+07   -8.3823681946510077e+06   -6.2020805094133001e+06   -1.8395377608859442e+07   -5.8656376284242254e+06   -3.6412377787195286e+06   -1.0320010662756126e+07   -8.2066867795620775e+06   -8.2938952640894782e+06   -1.7101128255021885e+07   -2.2197538407312386e+07   -1.8590454119890951e+07   -5.2185075935451956e+06   -7.4460125638206620e+06   4.0804877123521534e+06   6.1363345566448160e+06   -3.8557268198873818e+07   -1.3267641752581671e+07   -1.7204459330595810e+07   -2.7131407367824711e+07   1.6461528519805996e+06   2.0776935110125334e+06   -1.1097672691382762e+07   -3.5137513727215282e+06   1.0877020743848672e+06   1.1762810277463049e+07   -1.3144402590801392e+07   2.8502915915923542e+06   3.9544383596615437e+06   1.2323756604002345e+07   3.1572385200376841e+06   -1.4423378359508820e+07   -5.0384475126250060e+06   -7.6100370185341835e+06   -1.2338084878198557e+07   -1.1835133453481372e+07   -1.1630507973477228e+07   1.1117033803472662e+07   -2.3104040482929055e+07   -1.5500768834961695e+06   1.1272226863366364e+07   1.9633640492505006e+07   1.3411612669978093e+07   1.0724183403657631e+06   6.1458786443633977e+06   -1.8078732320801849e+06   -1.4624188010121888e+07   -1.5784984330332089e+07   -1.6761161326297410e+07   -3.7307368485065274e+07   -1.6656051031426953e+07   -1.5904979855009927e+06   4.0773159353598967e+07   -8.0172035075414069e+06   -6.3480591050971150e+06   -2.6790539212494157e+06   -9.6039855176269673e+06   -2.1509426773047213e+07   -5.3062317749581434e+07   -1.3007706356655812e+07   -2.4730997460829346e+06   8.0350202256643362e+06   -1.0739042666336784e+07   -3.4073970168320961e+07   -2.4973980346045781e+07   1.0186032956171231e+07   6.5308618260140531e+06   -4.6617091772683105e+06   5.5843806303178985e+05   -1.5943700562531756e+07   -1.9806752947181687e+07   7.9495777047306225e+06   1.1686877336086884e+07   1.6337060994607242e+07   2.0582703575875521e+07   -5.6342350980085609e+06   -2.2881274652793042e+07   -6.0474847327032490e+06   9.9250947456636354e+06   2.4962283539558863e+06   -8.6263821431717854e+06   -2.3939799020889703e+07   -1.0960730116469909e+07   2.1085479400430713e+07   2.6056065974771567e+07   1.8612536794030011e+07   1.0610967540501812e+07   -4.2873076424933681e+06   -2.6251641932339538e+06   -9.8570714810555298e+06   -9.6913465066021867e+06   -2.5452415281570688e+07   -1.8653412627088942e+07   -2.0437801307353251e+07   -1.9394219356083587e+07   2.4716544815068528e+07   1.3582701283759104e+07   -7.2842492479011817e+06   -3.8132353381966148e+06   9.8543248715263363e+06   2.7678804400729142e+07   -7.3068049154767757e+06   1.0527376978453984e+07   -2.0443723098131418e+06   1.7935320651319515e+07   -1.5745672016434191e+07   -5.0478221509923358e+06   2.1584048942076750e+06   -1.6709268966794385e+07   -1.2199021885769937e+07   -2.5623091331242267e+06   -4.0180436665134821e+06   -2.9294043254331290e+06   -1.9940305827749055e+06   -4.3455332123688497e+06   1.5755676239338949e+07   2.1100899920157325e+06   1.0780635194549419e+07   2.2466476604005069e+07   3.7828208530418142e+06   1.9203082329417793e+06   -1.7658386902095709e+07   -6.5240025016421685e+06   -1.4706276340019524e+07   -3.3267720542992666e+07   -1.3064568072588937e+06   -1.1174228055685575e+06   -1.3772540910832206e+07   -6.4353789875673335e+06   1.0129106388576800e+07   2.6040396056755453e+07   -1.5566208317919277e+07   -1.1230145782186890e+07   5.4623155088850074e+06   -1.7267678999929570e+07   1.0310328901556235e+07   -1.3385825096042711e+07   1.5970358325793186e+07   3.2342898504082549e+07   1.0972618378722604e+07   -3.2216183427570420e+06   -1.4672580144308560e+07   -1.3615301524669526e+07   2.5723830355054955e+06   2.2523742794563260e+07   1.0626157676418075e+07   -7.4486503182167271e+06   -1.1381448468081937e+06   1.0707374341323486e+07   -2.2044136998630776e+06   4.1413284318806313e+07   -2.0511654864783846e+06   1.8945389608281557e+07   1.2425485187501019e+07   -9.8819411178077199e+06   7.4851295336779281e+06   2.6959603228648109e+06   -3.1215450075864862e+06   1.4156325454826183e+06   -1.0517201508365652e+07   -1.6714472967058113e+07   -7.4968232401515776e+05   -4.1652453321439233e+06   -2.2673261570878397e+06   8.3159274667715998e+06   1.3635913299650373e+07   3.7444836116394281e+07   7.0001701983337021e+06   1.6185084169262076e+07   -8.6589024354243539e+06   6.2835218725327589e+06   -2.5689761785272453e+06   -1.2113128120161027e+07   -1.9279554050659645e+07   -1.4035713222658867e+07   -2.1660213338400178e+07   1.2041043421710748e+06   -1.2217952456550322e+07   3.2549467145839958e+06   8.3750372485713065e+06   5.6457678568707127e+05   6.2444179226699481e+06   2.0083012997014221e+07   -1.5512429765943587e+07   -4.6088807870068392e+06   9.4400501715886220e+06   8.7539685647823680e+06   -2.4285153579154811e+06   3.3010564886752134e+06   2.0506002209307174e+06   8.6912478697660230e+06   -1.4794579164896070e+06   -5.4690314041105686e+06   -2.0169447500403910e+06   -6.3084383673689235e+06   -5.9622449315391369e+06   1.4835986284172637e+07   -1.4361749775616091e+07   -8.5234297771337796e+06   5.7945473598212302e+06   -9.8409650696831774e+06   -5.9327993315128256e+06   6.2460330570499850e+06   7.4935159774646955e+06   4.3720008212910721e+05   -7.8959188585933521e+06   -1.5597927767777793e+07   7.3291357177913254e+06   -4.2177790736994604e+06   -1.9385267813875345e+06   -3.8422031728365663e+06   8.8481355449271332e+06   -9.5987978005500510e+06   1.8775191632410657e+07   2.0425728117365759e+07   -1.1423946500926765e+07   -1.5251201150271954e+07   5.2403363628194584e+06   2.9733891134508764e+06   -7.8959519128592173e+06   6.5279057932976251e+06   -2.4144427665140893e+07   -9.6044100036190469e+06   -5.5807979452180015e+06   -6.1818937492649509e+06   3.8675070886145663e+06   3.3725485818169252e+06   -1.0110905828810513e+07   -1.1265598292414412e+07   -1.7535530003548744e+06   -2.1423781985224608e+07   9.9754684576540403e+06   9.0112587528282274e+06   -1.7562741067269024e+07   -1.3321990081498232e+07   -1.1179512098059861e+07   2.7926882207037555e+05   -2.1115271885926914e+06   -5.6040948967006905e+06   -2.2390126664466675e+07   -2.6492297918388076e+07   -3.3043129840272204e+06   -8.7596977169253603e+06   5.0721511143386979e+06   -3.5320790413515354e+06   4.7931317528174082e+06   2.8304287424398750e+07   -4.0251315378350705e+07   -1.8962539240176365e+07   -1.1654507527413128e+07   -6.3993346290067090e+06   -1.5229938812454494e+07   -6.2533091940639466e+06   -3.9288685569580616e+06   -9.3970139710776974e+06   2.7409462909636348e+06   -9.6454164391870908e+06   9.4466407995303683e+06   3.9402129124664757e+06   -9.5065423502470925e+06   -2.1578823156105090e+07   -1.8475998683244333e+07   -1.5045705645853108e+07   -1.3171746143454233e+07   1.6235070897060655e+07   7.5282087618329693e+06   2.0556429298606873e+06   -2.7593534228053696e+07   -1.6346877142938862e+07   -5.5569758443309409e+04   3.8922262733608359e+06   -8.0071873754716385e+06   -1.2120169921598095e+06   4.1005693155351416e+06   1.7140385972280037e+07   -1.1110650332267964e+07   -1.0435643221563704e+07   -2.0077084136934489e+07   -2.5658326169650920e+07   -1.0400966579966513e+07   -9.0889652332920264e+06   -1.4136543238406293e+07   -8.0602967672995403e+06   -1.4734965518927226e+07   -2.7775469682309655e+06   -5.7600045737414584e+06   -8.1908544765485050e+06   6.9700534772998523e+06   1.5335322671256343e+07   3.3741794