<?xml version="1.0"?>
<VTKFile type="UnstructuredGrid"  version="0.1"  >
<UnstructuredGrid>
<Piece  NumberOfPoints="2534" NumberOfCells="4892">
<Points>
<DataArray  type="Float64"  NumberOfComponents="3"  format="ascii">0 3 0  0 -3 0  6 -3 0  6 3 0  3 -3 0  6 0 0  3 3 0  0 0 0  3 0 0  0 -1.5 0  1.5 -3 0  1.5 3 0  0 1.5 0  6 -1.5 0  4.5 -3 0  6 1.5 0  4.5 3 0  4.25 -1.25 0  1.75 1.25 0  2.25 -1.5 0  4.5 0.75 0  1.541666666666667 -0.2083333333333333 0  3.219827586206896 1.521551724137931 0  1.125 -1.875 0  4.875 1.875 0  0.8702651515151515 0.631628787878788 0  2.25 2.214285714285714 0  3.316176470588236 -1.904411764705882 0  5.214285714285714 -0.75 0  5.03125 -2.03125 0  0.96875 2.03125 0  4.041666666666667 -0.2083333333333333 0  0.8205128205128206 -0.9134615384615387 0  3.942582294752138 2.189194098250713 0  3.061487638533674 -0.968243819266837 0  2.192708333333333 0.4427083333333334 0  4.157850026972511 -2.182329047049442 0  2.331456616463011 -0.5285296485744057 0  3.654761904761905 0.5654761904761902 0  5.25 1.125 0  2.563673341677096 -2.280663329161452 0  5.126674107142857 0.1283482142857142 0  0.75 -3 0  0 -2.25 0  6 2.25 0  5.25 3 0  0.7680051888903191 -0.1384245958639337 0  1.617229471026718 -1.006949429867069 0  4.218940341429579 1.468686552856807 0  3.75 -3 0  2.25 -3 0  0.75 3 0  5.25 -3 0  6 -0.75 0  0 -0.75 0  0 0.75 0  2.25 3 0  6 -2.25 0  0 2.25 0  3.75 3 0  6 0.75 0  1.787573018358365 -2.279142327213878 0  3.195025188237337 2.273430909158844 0  2.528159645294386 1.151699106559287 0  1.041598427383826 1.322848427383826 0  1.520951704545454 0.4634232954545453 0  1.580357142857143 2.325892857142857 0  4.919642857142857 -1.361607142857143 0  4.54981623521892 -0.6483700862895494 0  2.99317863826574 0.6697091957925523 0  3.450169349029507 -0.4574865881858001 0  3.605016126014028 -1.323102984840902 0  2.745144658907412 1.882241931337371 0  0.4898065586600511 1.092777516238393 0  0.5 -1.875 0  1.217028489597945 -2.469323836800685 0  1.659912685567181 -1.604738056701542 0  5.4375 1.6875 0  5.34375 2.34375 0  4.52741779500503 2.384139265001677 0  3.375 -2.514804579549941 0  0.5446428571428571 -2.455357142857143 0  2.766554087216865 -1.745795909102064 0  4.525516559010988 0.1490283123570637 0  3.87554132162248 -0.8280516069565407 0  4.53622906132958 -1.76963146596888 0  0.4243951612903226 1.875 0  0.554851858345021 2.446861709948876 0  5.575604838709677 -1.875 0  5.445148141654979 -2.446861709948876 0  4.875 -2.575604838709677 0  1.440573466105381 1.721823466105381 0  2.193519495405082 1.631799415080963 0  5.472630128027442 -1.330813078900983 0  4.750126894286386 1.343813447143193 0  5.607142857142857 -0.375 0  2.625 2.607142857142857 0  0.3921763197810531 0.375 0  5.60901753622775 0.3750000000000001 0  1.125 2.613454943235572 0  3.701856738980915 1.163867513386733 0  3.736112850688509 1.696746876851408 0  3.519183195491339 0.06065128742606851 0  3.973620778217027 -1.693401606145563 0  0.8125 -1.444978632478633 0  1.256657745408029 -0.6381828923025001 0  0 -1.125 0  5.019997778514942 0.6475044429701156 0  4.125 3 0  1.285569332703024 0.8955310332120207 0  0 -0.375 0  0.4638922275641027 -0.5625 0  2.056635259780241 -0.07226025978024064 0  2.130475508371123 -1.000827820434028 0  2.677484372338113 -1.267299126394495 0  2.848680878891876 -0.4956836878192376 0  4.937901885089369 -0.3340245904575954 0  4.393563081308854 1.919544166973803 0  4.053859126323572 0.2813938488760716 0  1.181051704329518 0.1167440895674965 0  1.971354166666667 2.607142857142857 0  4.875 3 0  2.519350561152006 0.08093582719875507 0  3.139443301924015 -1.442524927271905 0  6 2.625 0  1.849169256239503 1.945480934753207 0  1.867196483071171 0.7892354369530077 0  1.192506522009051 -1.184888428863342 0  3.375 3 0  3.603234392481833 2.536866305538572 0  3.846752908916648 -2.537707634073423 0  2.014339897513945 -1.886932065281681 0  4.038392037966526 0.8363324773944992 0  4.421242701722609 -2.552534687860327 0  3.715389848650903 -2.108856956172843 0  2.985668138820625 1.127780908772207 0  0.4500794934449803 -1.173696061598557 0  3.366760888116476 0.8891914618875614 0  1.869163043700093 -0.6107175804171328 0  2.175114838273305 -2.53928723780967 0  3.014417665538299 -2.241523065744933 0  2.625 -3 0  2.819968145332426 -2.617202329573456 0  5.625 1.3125 0  5.563263538826679 0.814027077653358 0  5.625 3 0  2.550041671270923 0.7074928970804664 0  4.014583091741168 2.59891853892166 0  0.6440729668673318 1.499523832583132 0  5.219449799568244 -1.660557808485412 0  3.474012636702472 -0.9300738420779746 0  0.8125 -2.142857142857143 0  1.875 -3 0  4.945010515846405 2.554471797033147 0  2.611388969012422 -0.8478354915063726 0  3.223746055611014 0.3371683159691745 0  4.843939757110898 -0.9483610977948225 0  4.66556954816842 -2.220888354477256 0  4.125 -3 0  4.448108395110625 -0.2524000502731018 0  5.63671875 2.05078125 0  2.822484133964224 1.491327727709286 0  3.378213092764193 1.903125093887009 0  5.607142857142858 -0.9231200445788541 0  2.12639693023183 1.100450516019641 0  5.625 -3 0  0.375 3 0  0 2.625 0  6 -2.625 0  0.3931307155906299 -0.01856779822591927 0  0.8549199714190221 -0.5218333744252657 0  0.7651723094668359 0.253768144801553 0  1.421989550604507 -2.133299471886336 0  1.582611957351803 -2.615166692128227 0  4.420331038793115 1.133144382396504 0  0.375 -3 0  0 -2.625 0  5.078156723571596 1.54697017071479 0  1.877250715260938 -1.288801575378032 0  2.409169073010687 -1.916147168931784 0  1.146151077069952 -0.268000681695328 0  1.726784828652036 0.1335728643263411 0  2.745628549924675 0.3838821021397905 0  3.011490900297165 2.613625569196862 0  5.62463365164608 -4.137655439684362e-05 0  1.875 3 0  1.125 3 0  6 0.375 0  2.625 3 0  6 -1.125 0  6 -0.375 0  4.875 -3 0  6 -1.875 0  3.375 -3 0  1.125 -3 0  0 -1.875 0  0 0.375 0  0 1.125 0  0 1.875 0  6 1.125 0  6 1.875 0  4.813017731148975 0.9677363687196439 0  2.807371623148303 2.264962208227767 0  0.3692953377255688 0.7436406761680247 0  5.615625 2.615625 0  0.9395725521479794 0.9812935874921043 0  1.390920759130215 1.238984550166515 0  0.9588795022085095 1.672288500195331 0  0.87712392565124 -2.641031728267331 0  0.3665732993114588 -1.532068934251388 0  1.841944504733106 1.591700334213738 0  4.832970185136452 0.3385359233091246 0  4.169083540479082 -0.5746148619765254 0  5.281697083409333 -0.2046640461936881 0  4.072845380968044 1.784516523483641 0  1.293029195762321 -1.543079049035419 0  4.878733886054284 -1.720697370582964 0  3.609167475697567 -1.687579152754035 0  4.836981942878573 2.222259978217028 0  4.204938267037067 -0.9128589669335569 0  5.183079748175263 -1.111742407358677 0  1.469404041858679 2.654509729682302 0  1.22880920402559 2.273525645756405 0  4.566761045622856 -1.414165869120005 0  4.531680518427715 1.606803989975667 0  1.918929241273175 2.27471131819245 0  3.590183783343969 2.184680610175416 0  1.85683899811842 0.4533569963423589 0  1.173935704088662 0.4636872214645547 0  2.116602160898525 -2.207718541460878 0  4.51821874648995 -1.042568353750147 0  2.721551512787618 -0.1859357475290837 0  5.294921875 2.001953125 0  5.288671874999999 2.670703125 0  2.199940744527116 0.7756512213396931 0  4.090519467638897 1.163401080812838 0  2.298177083333333 2.670581371753247 0  2.484362362207526 -2.687319997637033 0  3.300530569898859 1.207053005217563 0  3.936078051808127 -1.362164062673065 0  5.341218841330105 0.5689885832563615 0  4.226314635599414 0.5638853401248238 0  2.524510956818563 1.635483567726497 0  0.3219546452225031 1.389066019009203 0  3.139061555368706 -0.3133905221155423 0  3.145569907612562 -0.6461828528638952 0  3.701427442033566 -0.2272880199383185 0  1.686782510365738 -1.934662341426927 0  2.427696494631844 1.944064773844184 0  3.901817839425732 1.422433381251312 0  2.356489883772755 -0.2025512972825912 0  4.820757576351118 -0.01647699434507374 0  3.064415631228375 1.809719380809516 0  4.643002705009462 2.69782572459795 0  4.31624250429496 2.728112685900672 0  1.520100694408069 -1.314302747998057 0  3.754559308601717 -0.5375020107416889 0  0.25 -2.0625 0  0.8125 -1.826636904761905 0  4.861738621091127 -0.6367294570749906 0  1.545149590740081 2.015832101819233 0  3.857113324620078 0.04127675193819436 0  0.3162874907704933 -0.864918315983958 0  4.21293081604216 2.352874368135467 0  3.123697687162562 -2.708090473740421 0  3.415275466010259 -2.202892416689829 0  3.601103065320932 -2.727566580522146 0  1.558629964945672 -0.5289921609136927 0  3.324859026263307 -1.198136798699183 0  2.424350759683917 -1.092246517929194 0  2.789248065239812 0.8954629970670158 0  0.8882026075771248 2.364936378889839 0  0.8066140242673685 2.679750706449505 0  4.504454978490482 0.4491616076730165 0  4.26881784709759 -0.009649566552704852 0  1.313479173834523 -2.758675889510418 0  1.120577805361368 -2.179971784090952 0  3.734048623985226 0.8602850349907256 0  3.527828882622877 1.432983527791925 0  1.959527908877504 -1.578124930685265 0  0.7602573574724077 1.220872343399509 0  0.6691217533356228 0.8531987603309893 0  1.877213035764122 -2.564340152892596 0  3.304349402914068 2.552016594979913 0  4.285565286275464 -1.569057178671076 0  4.227521511146333 -1.876903861267543 0  5.34375 1.40625 0  5.71875 1.59375 0  1.56245959534423 0.766197796710638 0  0.2458241530773257 2.4375 0  0.2794123857609179 2.138568368155198 0  5.754175846922674 -2.4375 0  5.720587614239082 -2.138568368155198 0  0.6472458227887359 2.124973059628837 0  5.124241021325378 -2.352544055105642 0  5.189172233440652 -2.675873509996353 0  5.364643151640443 -2.12768524739804 0  2.298896485720138 1.348573610321417 0  0.6008689899200503 -2.745193425346304 0  0.307092513690391 -2.651812055231556 0  0.2683745826107009 -2.363146293324415 0  0.5223214285714285 -2.165178571428571 0  0.5169611136983336 2.740349995819724 0  5.607469108596883 -2.699891746740618 0  2.138439274270545 1.947386893596098 0  1.25507379660067 1.953406658386351 0  4.135759889512124 -2.476847355718572 0  2.548249345531056 -1.538893887888457 0  2.771010284190282 -2.05339728351
[...]
<CellData  Scalars="f_26-2"> 
<DataArray  type="Float64"  Name="f_26-2"  format="ascii">7.6747251870867087e+34   -6.0348493818825103e+33   3.8525227907970969e+34   -1.2396677207452720e+34   1.6177510933795737e+34   -9.1501463826717674e+34   -5.5772331810197375e+33   4.9869567858078238e+34   -1.7219508614291862e+34   1.7286377178638690e+34   -3.7918773529891031e+34   1.0089283361188719e+34   -1.4945645621016389e+34   1.3826530735483110e+34   1.9068560458678920e+33   -1.9047029446877471e+34   -5.3767953740671136e+33   1.0225335704601991e+34   2.6276802787672903e+34   1.4348974476436404e+34   -2.3444831990174057e+34   7.1879841658050301e+33   2.8460471348295523e+34   -2.0191458501762552e+34   2.0935890946921426e+34   1.6547193994809765e+34   7.0058144921782088e+33   8.4003539486585657e+33   -3.8041899530909069e+34   3.1882984947089706e+34   -1.8234918391696907e+34   3.8629192822100237e+33   1.8436236022530416e+34   -4.5057160604841648e+33   -1.1218102527479719e+34   3.6584245494899158e+34   -2.9311238937317212e+34   -3.1867970630450885e+33   3.7620148354193415e+33   -4.0186360195257955e+34   1.8973038899409409e+33   4.5651843352979114e+34   -9.0844636116720848e+33   6.1436836203072085e+32   3.5384476941279660e+33   1.4793762172741721e+33   -1.7966597293920886e+34   2.3638532481002291e+34   1.1696387899982983e+34   -4.2505820438437903e+33   -2.6641443654035874e+34   -1.2874459943385912e+34   1.3327335291208135e+34   1.8748505996685395e+34   -6.5930169027415867e+34   -2.0969462476883779e+34   1.1203343096283188e+34   -1.0799522842216026e+34   -4.3146777184660496e+33   -5.5065911802916261e+34   -1.3223924759475153e+33   1.3207892121428862e+33   -2.5556339179947450e+34   2.8357393984040547e+34   6.0829248070551753e+34   -2.8558653262619845e+34   -2.6356145067735790e+33   -1.3970207501384013e+34   1.4727015727557702e+34   4.9052740205381550e+33   -4.7969253606931031e+33   -9.0569574270332623e+33   3.1510438647422528e+34   5.8566147474446203e+33   -3.9425571084821650e+33   -4.2587761588004908e+33   1.1145902237959617e+34   1.9978566273180527e+34   1.6576283175667366e+33   2.6744533798308624e+34   -5.7239874096713180e+34   2.7399359719636786e+34   6.1913335014119563e+34   1.3143254130085449e+34   -4.5336360084759216e+34   -6.1734204293101195e+34   -2.0669005155782785e+34   4.6554435348068428e+34   -3.2785013997026216e+34   -1.3368055477170479e+34   3.5882906457129732e+34   -1.3618061183988602e+34   1.7687217122659142e+34   1.9131437330100363e+34   1.0140989583587688e+35   -1.0774734049327653e+34   -2.5130820101574885e+33   -3.5791861339930771e+34   3.5851878905727791e+34   -2.9580758652273467e+34   -3.6700026088757676e+33   -3.0603688681518747e+32   1.3846723997883548e+34   -1.9125062864947353e+33   -9.9475798576947067e+34   5.8706209345626108e+34   6.0395218086053727e+34   -4.1983965241162782e+33   -3.8256787153536416e+34   -1.5796444549401280e+34   -4.8036313191022686e+34   3.6551307574608635e+33   -1.0408359070238794e+34   -3.0798174733602447e+34   -1.2216418043544643e+34   1.3048587590988863e+34   1.6419596148785218e+34   -8.3092221599774597e+33   6.1117421765397340e+34   2.4791340575967560e+34   5.4582605181751797e+34   -7.1841372752481001e+33   -1.0687198016635482e+33   1.1876409845229415e+34   8.1947137584976413e+34   3.0442278003274909e+34   7.3951420073560780e+34   5.8612731947519386e+34   -1.1839143183296884e+34   9.0883842170485351e+34   -1.1146360780354439e+34   -7.6856021204660353e+33   4.7968949619964456e+33   -3.3693572128524371e+34   4.0419593947238244e+34   -9.0845573864636759e+33   1.1780127392840169e+34   -2.7323668689675256e+33   -5.5655846176417365e+33   -7.1898153052215134e+33   -4.2129137560719486e+33   3.6912431272595125e+32   1.7285376144143920e+34   -5.4946505819686347e+33   7.7279047123804074e+33   -1.2487376559614763e+33   -2.5204828578610188e+34   -3.0951024264549007e+34   3.3360900940145681e+34   1.2218020142716256e+34   -5.9448778491224038e+34   -1.4570988482449317e+34   1.1009299056721550e+33   3.5706567711222836e+34   -3.6600982030082721e+34   -2.4072657577320612e+35   1.4277816800866171e+34   -2.6214902571664479e+34   -5.4376553502053586e+33   3.9438001254510303e+34   9.2419438127833520e+33   6.0549556911495997e+34   -4.9432205519099315e+34   -2.4572772672132449e+34   1.7714026072667930e+34   1.5753223214572215e+34   1.8894361238170946e+34   5.6576677548589927e+32   -5.8265981052555323e+34   5.9743043878842817e+33   9.6690262956979414e+33   -2.7035164404218531e+34   -8.0313125664484485e+34   2.3518125586046742e+34   -1.2422269206619926e+33   -9.0288318994347609e+33   1.3837206334006657e+34   -3.1729261523403730e+34   -6.7758357299716703e+33   8.3783801926822122e+33   -4.5128231478489783e+33   -5.4988985192576845e+33   6.8471172533805062e+33   -1.8929885945036791e+34   1.6637595275580161e+33   -2.5385873861300257e+34   -6.6114933320616719e+33   -2.5720222664404880e+34   -1.2458666586793786e+33   -6.1109250015543711e+33   1.1135667960925980e+33   -7.7830614899153597e+33   3.0916599317238753e+33   -1.3766713675829301e+34   -3.7505522481305140e+34   -7.6664434004090385e+33   -1.5725924473301006e+34   -2.7354370656704912e+34   7.7851846998560853e+33   1.8886766683209712e+34   -1.2815082847313772e+34   3.9363542245606330e+34   -6.6927569909766265e+34   -2.1204485046753576e+34   -3.2993938631222062e+34   3.7753806671763604e+33   -1.6289750066225851e+34   1.4747454890568199e+33   1.8372019928239115e+34   1.9139011075691008e+34   -4.1167742523733615e+33   1.4786563438993171e+34   -3.9408484288762976e+33   -9.9764125434157899e+33   -1.0374615040283417e+34   -8.3713435390886967e+33   -3.5561954436458861e+34   8.6757208476267478e+34   -7.0927876735210836e+32   1.6954722291084187e+33   -1.4027917429185335e+34   -7.9100127834148364e+33   -1.6341851021950709e+34   -1.1440323529759053e+34   1.0670429636521231e+33   2.3731077253995684e+34   -8.2840559490370426e+33   6.3349539801003212e+33   -1.7137631266295735e+34   -2.3143412046914362e+33   3.5140013083762838e+32   1.7606497293586970e+34   -1.6349187605832143e+34   -1.3566803764515387e+34   -8.5880777569252176e+33   -2.3397282874905673e+34   -3.3688048489894722e+33   3.4937155696500134e+33   -9.0160428487734596e+33   -1.5115411485617152e+33   -3.0826980179821592e+33   -8.8479127611328544e+33   -8.1622991064684937e+33   5.5187179640080014e+34   -2.0535043462353115e+34   -1.6014159953832413e+34   -7.1244007579003705e+34   1.0891032074384150e+34   -3.3219004042011342e+34   -5.7109279120690280e+34   -4.0957571219523597e+34   3.6091770363239934e+34   -3.5149184652898901e+34   -8.2097189545587177e+32   -1.4615632616190360e+34   4.4387699897907542e+34   -3.5130144345566095e+34   -1.1146787688077845e+34   1.1910782263425478e+34   -3.4874673562351072e+33   -1.5141635027375892e+34   -7.0502854280035469e+33   -1.8926487871317564e+33   -1.3278698015798066e+34   2.6299509177208582e+33   8.3971733983012315e+33   -7.9878320050751016e+34   -6.4793435943499539e+34   1.5481484978337057e+34   2.6053802997102706e+34   -3.2230494141242250e+34   1.5402626943942577e+34   -2.3707410552123158e+34   -4.5822016295823403e+34   -1.8611624657380488e+34   -1.7361385102806193e+34   -1.3987981074700094e+34   -5.4195001114767746e+33   1.6720431252600312e+34   -3.4966348899995939e+33   -2.0541284405283815e+34   -3.2273995268965134e+34   -7.6122880718655140e+34   4.0325079379816300e+33   -9.2053802149679987e+34   -3.8837152775090332e+34   -3.9417293683724625e+34   1.1705888580445804e+33   4.0062324582631830e+34   1.6436577614668878e+34   -2.5020123131216969e+34   2.5384824248659610e+33   -4.6582504891455181e+33   2.7671490666514431e+34   -7.3478343374483867e+34   3.2965690089868932e+34   -5.2928301393655172e+34   -4.5208762268699736e+33   2.0051290354659452e+33   -3.8846330139078783e+33   2.3652184163144527e+32   1.8838056394173030e+34   -3.1780359624180908e+33   -1.7832048804872203e+34   6.5485897883120173e+33   4.5452077247922793e+34   3.5821293915398846e+34   -9.4989646556671056e+33   4.1134336956865150e+33   4.2531180867884973e+34   3.7796332264858867e+34   1.0175078100672582e+34   -9.7120699155938252e+33   -5.0843997398057430e+34   2.1828878128111002e+34   3.0655779072203923e+34   2.4389408212974401e+34   2.2863133750606319e+34   -5.6527723064257523e+33   -4.0483900616273573e+34   -6.1012318180558140e+33   5.0740773106780130e+33   -6.3349367026035234e+34   3.6296885016851531e+34   1.0063349643568175e+34   -5.9069587766220508e+33   6.9287116735901187e+34   -2.8385923773787259e+34   -1.0384564664402908e+33   2.7110323483489196e+34   -2.8028079884088065e+34   -4.3492668950741687e+33   1.1191195063829138e+34   -3.5545006734016772e+33   3.8565524915879265e+34   1.1733941734322171e+34   6.2586204589988066e+34   3.6722563464233969e+33   1.0913017331481625e+34   -8.6520011272869181e+33   1.2451876119013152e+33   -1.0634512683301242e+34   -1.7875831858473022e+34   1.5416937925144581e+34   -2.5311948333431099e+33   -3.6244120872687574e+34   1.7665569198204743e+34   -2.0446793736864074e+34   8.0074371330133528e+33   9.4335299622816536e+33   -7.9580644265758185e+33   2.7797897304621483e+34   -3.4422701039473690e+33   -1.5053326160759115e+35   3.8275904527870100e+33   1.8318860119874077e+34   -7.7009175826770631e+34   8.4986741620909585e+33   -1.6308939644635144e+33   7.7698975417805521e+33   -6.6876637507547720e+31   2.3233491311177873e+33   -6.8047433662204233e+33   -3.2023642500059158e+34   -1.3893939070391872e+34   8.9987077587765075e+34   6.1078041089144583e+33   3.0559408017310259e+34   1.2260154823234089e+34   -4.1943718134301375e+34   1.6501041926235242e+34   -6.0300382410533851e+34   2.9015294384848487e+33   -3.3164375689943438e+33   1.3053773049419678e+34   -3.4240244087026155e+34   -6.3705332788400906e+33   1.8729457184207848e+34   -3.8078699694177294e+34   7.2034617956386017e+32   -2.2468857935706921e+34   -1.2293518571964369e+34   2.4403487725130889e+34   5.3250995608328855e+34   2.5275487958909543e+34   5.3943184436732566e+34   4.8716707203246437e+34   -3.8465171918633670e+33   2.3108396946464395e+33   1.8010069213943858e+34   -1.3376566993163688e+34   -4.2893116724760308e+34   1.2955551004860020e+35   4.3904976317041659e+33   -9.0440447396177347e+33   1.9805084744743544e+34   3.6702463344688780e+33   3.5110859627079194e+33   -7.9578476033932613e+33   -2.1381800112507828e+34   -8.1509683479110672e+34   2.3948818192747895e+34   -1.6639972423285746e+34   1.7648009720247503e+34   -1.2218811973866436e+34   -1.3144414897196937e+34   2.3584674030412145e+34   -1.3640339447711466e+34   -8.1994506414299716e+34   7.9982278215449989e+33   2.6031522514572338e+33   -9.4554315222122577e+33   -2.6785361757924599e+34   2.1080304163207421e+34   5.1859511687641375e+32   -3.2458287321798893e+34   2.8189090180810638e+34   3.5327254228217103e+34   -7.0328811050142524e+33   -1.6556235501430112e+33   9.4484997681659556e+34   1.4893967355404468e+34   -2.1594769494100053e+33   1.0529584603240326e+34   -7.1306181456813476e+33   -1.7468624318342293e+33   -5.4730410443546698e+34   1.3988065340476992e+34   -3.8377540280234500e+33   -5.2541034399880964e+33   -1.4924081050197149e+34   -4.5613023417247129e+33   6.9650793252293465e+33   2.8399303638935490e+33   7.0888435993616765e+33   5.0396216659054129e+33   1.0973694752383075e+34   -1.6056015873695829e+34   -4.7012588500071016e+33   4.8663721322796074e+33   7.2232819547416956e+33   1.3024556468250451e+34   2.8617372644979458e+33   -2.8375975691941907e+34   -9.3491093102114651e+33   2.3555567770863784e+34   5.0188546366331950e+34   3.6819638883526990e+34   2.2885451297130469e+34   -5.3801950976841651e+33   9.8700819463127800e+34   2.0977148553335320e+34   4.9448653519943007e+33   1.4597722416752573e+34   -4.6851420654379142e+33   -8.4402891724818664e+34   2.2464606437029038e+34   -3.1326581302686134e+34   -1.4316337831789779e+34   1.6215867227829656e+34   6.0655722923895325e+33   2.1489997035607072e+33   3.3863554832928637e+33   2.0709860023536444e+34   1.5409007308638230e+34   -4.6096943661316752e+33   -1.4609242239617615e+34   -1.1928402360465501e+34   1.1458988615615188e+34   5.4202604110580663e+33   6.9564004482261567e+32   -6.2346155351138519e+34   -4.4436517333771689e+34   -9.0000553132818491e+34   3.2123427168549533e+34   -6.8532976368348380e+33   2.9757553487788716e+34   2.8066744585595612e+33   9.6817319845712663e+33   2.9179545669755595e+34   8.7407202881971620e+33   -2.9496460840698959e+34   9.5738499049651634e+32   5.4445344641825458e+34   -5.7453354072240635e+34   2.6833327413402009e+33   -1.6700958676672369e+34   -2.0567253323132500e+34   4.4360022774324559e+34   -9.0575907852412101e+34   -5.0491393942612322e+33   2.1047358909775518e+34   5.9375080753756784e+32   2.5257609061149625e+34   -4.3932983421870837e+33   -1.1807496387267068e+34   -2.8487395138381510e+34   5.7175196565366801e+33   2.0805025962803782e+33   6.7176762308376361e+34   -1.2335352167235862e+34   -4.0403992274915455e+34   -7.4304554917207830e+33   5.2479882541489475e+32   -1.4032204540150054e+34   -3.0459241435225813e+34   -1.4021158518213675e+34   4.7292474976169632e+34   4.9501786690003191e+33   1.1136511796512369e+35   3.0491411041942415e+34   -2.5921514148058200e+34   -1.5455675892674453e+34   1.5079875974817558e+34   2.0226819362387689e+34   3.5944125674549601e+33   8.7057715584920681e+34   -1.6315204453947846e+34   -3.4265319186912879e+33   -1.4363129612575593e+34   2.7511594351214447e+34   -5.1103336345463405e+33   3.3726473856735303e+34   -1.7294454187231739e+34   2.3620843156434938e+34   2.8849375587992937e+33   -1.0767374693763279e+35   -1.9221247802417600e+34   -1.8540443266703517e+32   4.1796207881051383e+32   1.2780732355368947e+35   1.9639085716628929e+34   4.3929880092066066e+34   -1.6760861726185082e+34   -1.6417315403892452e+32   -5.2495356827558287e+32   2.9110015073296936e+33   -1.4563896713302089e+34   -2.0381557957878444e+34   -4.8192036206950877e+34   1.3946644331358610e+34   -4.6016587265023274e+34   9.8848319923403239e+33   -2.6980129660420897e+33   1.3223451450354010e+34   -5.2937786890119834e+34   -4.1480977397343566e+33   9.2070031042582098e+32   -4.4206908009685099e+33   3.7600115646954655e+34   1.0847330560240836e+35   -4.5043108208043067e+34   -9.4758377822120732e+34   5.1880160366729096e+34   1.4782683685319223e+34   4.1662740366433641e+33   2.2742485251718807e+34   -3.0187791397825334e+34   3.0635011572612277e+33   2.0219079002471593e+34   -2.3498845959486944e+33   -4.1486031952761007e+33   -2.3937185511360186e+32   4.5551535155913373e+34   1.0170432784523492e+34   1.2171363338262602e+34   2.6578345726804143e+33   1.0728816074518775e+34   -1.2955132713232695e+34   1.8748990913288144e+34   1.1129341112261618e+35   -2.3719598672978216e+34   -4.7258759696644641e+33   5.1546278807752686e+34   2.9355804529319667e+33   2.8094399794732476e+34   4.2435723946996832e+34   -1.3410807357969029e+33   -2.5230678337947988e+34   1.4965522152357367e+34   -2.9295584407121132e+34   4.9776947327211454e+33   3.5886787732053641e+33   -1.7341404504410861e+34   -2.8363697108117672e+33   5.3446317874045555e+33   -1.5497674722928573e+33   -2.8416207031855084e+33   -1.6685474028328068e+34   -4.4891165745209105e+34   -3.1018591447278807e+34   -8.6972285125960456e+33   -3.7395819743952057e+34   9.0333868614416033e+33   -3.5221456342609717e+34   6.8451527710099745e+33   2.8210882135695916e+33   -1.6984041349836546e+33   3.5302897202982611e+34   -3.4954063327402094e+34   1.6026381216863914e+34   3.2227748134883133e+33   3.2203730124277828e+34   -1.5854174901238761e+34   -6.2094282045519690e+33   -7.1706781980480827e+32   -8.0806936405099984e+33   3.0588100461274276e+34   1.4889442479454044e+34   -1.1503079194796668e+34   1.3138756314150418e+34   -5.0727986228573694e+33   -8.8687101596222078e+33   -8.0251750084952301e+34   1.0163048327691067e+34   4.3788755013306693e+34   -1.1673488004104895e+34   2.3397980990594666e+33   -1.6195193148021204e+34   3.4639827013050660e+33   -2.8527734813740951e+35   -2.6656726653953629e+35   6.2463694557766251e+33   -2.6753589427916772e+33   3.0041067654635291e+33   1.4096053879097932e+33   -9.4882913854317869e+33   -7.6688891672569812e+34   -3.2559524091904449e+34   9.8980301144746485e+33   3.3215370554583483e+30   -1.8359941684224034e+33   -5.0260294223121889e+34   -2.2475883726970881e+34   -2.4624210446437730e+34   8.6777159962373903e+34   -6.6046215019611416e+34   4.1529158975144185e+34   -2.7441330314916504e+34   -4.9226772428954232e+34   3.0757941487124828e+34   -6.7035085665107419e+34   3.3145431603747111e+34   2.5893316026783624e+34   -1.4963666266324717e+34   -3.9324689132887800e+34   -1.0844784561553880e+34   1.8746745638453125e+34   -6.1362375393104087e+34   4.3855799782455923e+33   4.2789645784724433e+33   -6.4040299344661063e+34   1.0725694684621327e+35   4.9273980206831585e+34   -2.6275199095012636e+34   2.6908836170534203e+34   -2.4633087646444002e+33   -8.5672929607345110e+33   -1.3898251328971019e+34   7.2263924738817987e+34   1.0076260537827094e+34   3.8154090897407890e+33   -7.5310064620123755e+34   -1.6815955261132733e+34   3.2185927126190317e+34   -1.2517216603499263e+34   -2.5578212246745923e+33   1.5634678926836912e+34   1.0944615496833335e+34   -4.5609660159828217e+33   3.1241423179699934e+32   1.1972080025014292e+34   -6.1799683647753778e+34   6.1061382807002141e+34   -2.1023273151064931e+34   -2.0490922865833830e+34   8.4338775551653606e+33   -6.0741814059361480e+32   -2.9905272850932560e+33   4.8458825077625186e+34   -1.2335712922280351e+34   1.0897240469425177e+34   -2.5456807273101125e+34   2.8617873667356112e+33   -9.4682670816497168e+33   -3.7730629883745271e+33   1.1043347202678209e+33   2.2268045792435913e+33   3.9143179744347748e+34   -4.1603704764853729e+32   2.0342604783758626e+34   6.3781314294711968e+33   1.9265629687108500e+34   -7.5190292815244267e+33   -4.4794685217893607e+34   -6.0308118578566940e+33   -2.6260963726076004e+33   5.2466515286527494e+33   -3.3167431857374152e+34   3.1700992890659633e+34   6.7616501784888788e+33   -1.6433184979741754e+34   -9.4179128756746131e+33   -4.7882198491217875e+32   -1.3387649439125164e+34   3.0863641354762946e+33   1.5042427114427292e+34   1.0351484357898297e+34   -7.9521988956533984e+33   3.7721233806023494e+33   2.1998457855952881e+33   2.5664470168903283e+34   -2.9692513617608089e+34   1.4107547764609256e+34   2.2086329012040090e+34   -4.8255043496036549e+33   8.1639271739570873e+33   -2.2741132078253450e+34   3.9994728523837837e+34   -9.0349883794760576e+33   1.2872987564036282e+33   2.0700649504728875e+34   9.4890385064443922e+33   1.6510487040372211e+34   -4.7030021596390872e+33   2.5276606227852964e+34   2.7090171823928882e+33   1.6780428172867670e+35   3.8578046469018493e+32   8.7467263012312159e+33   -2.2217039156806103e+33   5.6124165470001377e+33   -4.0141852608353627e+34   2.8294747057374485e+34   -5.0832700985011047e+33   1.1402545091673695e+34   2.3102650938677576e+33   5.1393562624499385e+33   2.3754117947980469e+33   -1.4802368156495456e+33   3.2564935672953309e+32   1.9304728638279223e+34   -6.0658000373499814e+33   -3.8038027151921516e+33   -3.5728871238867737e+33   1.0342610031309579e+34   -3.3937084344931226e+33   -3.6065142306275562e+34   -7.5851401269303119e+34   -7.3577061914940572e+33   1.0354594452529758e+34   4.2927438257971898e+34   1.8776822316666918e+34   6.7479404561172766e+34   8.4386040237120022e+34   9.5646093423048960e+34   -8.0750322265714201e+33   -8.3797863591991221e+33   3.6660830331897850e+33   -4.2565439860155169e+34   3.7360471657231991e+32   -9.0417503053510523e+31   5.2036908790123140e+34   1.9014335119310231e+35   -4.5074839615554874e+31   2.3675470602455332e+34   -1.3515598481884440e+34   -1.9808270053342240e+34   -8.7210469546477495e+33   9.6026574672242840e+32   -6.6744623442486650e+32   2.1405771576168220e+34   4.3512295858879092e+34   1.3340983764390345e+34   -2.3470472633974283e+33   8.9580027628445861e+33   6.7618407685511110e+33   -2.1910720633519168e+34   -1.3637052224713885e+34   -1.5204938600358734e+34   -6.942315705767