<?xml version="1.0"?>
<VTKFile type="UnstructuredGrid"  version="0.1"  >
<UnstructuredGrid>
<Piece  NumberOfPoints="2534" NumberOfCells="4892">
<Points>
<DataArray  type="Float64"  NumberOfComponents="3"  format="ascii">0 3 0  0 -3 0  6 -3 0  6 3 0  3 -3 0  6 0 0  3 3 0  0 0 0  3 0 0  0 -1.5 0  1.5 -3 0  1.5 3 0  0 1.5 0  6 -1.5 0  4.5 -3 0  6 1.5 0  4.5 3 0  4.25 -1.25 0  1.75 1.25 0  2.25 -1.5 0  4.5 0.75 0  1.541666666666667 -0.2083333333333333 0  3.219827586206896 1.521551724137931 0  1.125 -1.875 0  4.875 1.875 0  0.8702651515151515 0.631628787878788 0  2.25 2.214285714285714 0  3.316176470588236 -1.904411764705882 0  5.214285714285714 -0.75 0  5.03125 -2.03125 0  0.96875 2.03125 0  4.041666666666667 -0.2083333333333333 0  0.8205128205128206 -0.9134615384615387 0  3.942582294752138 2.189194098250713 0  3.061487638533674 -0.968243819266837 0  2.192708333333333 0.4427083333333334 0  4.157850026972511 -2.182329047049442 0  2.331456616463011 -0.5285296485744057 0  3.654761904761905 0.5654761904761902 0  5.25 1.125 0  2.563673341677096 -2.280663329161452 0  5.126674107142857 0.1283482142857142 0  0.75 -3 0  0 -2.25 0  6 2.25 0  5.25 3 0  0.7680051888903191 -0.1384245958639337 0  1.617229471026718 -1.006949429867069 0  4.218940341429579 1.468686552856807 0  3.75 -3 0  2.25 -3 0  0.75 3 0  5.25 -3 0  6 -0.75 0  0 -0.75 0  0 0.75 0  2.25 3 0  6 -2.25 0  0 2.25 0  3.75 3 0  6 0.75 0  1.787573018358365 -2.279142327213878 0  3.195025188237337 2.273430909158844 0  2.528159645294386 1.151699106559287 0  1.041598427383826 1.322848427383826 0  1.520951704545454 0.4634232954545453 0  1.580357142857143 2.325892857142857 0  4.919642857142857 -1.361607142857143 0  4.54981623521892 -0.6483700862895494 0  2.99317863826574 0.6697091957925523 0  3.450169349029507 -0.4574865881858001 0  3.605016126014028 -1.323102984840902 0  2.745144658907412 1.882241931337371 0  0.4898065586600511 1.092777516238393 0  0.5 -1.875 0  1.217028489597945 -2.469323836800685 0  1.659912685567181 -1.604738056701542 0  5.4375 1.6875 0  5.34375 2.34375 0  4.52741779500503 2.384139265001677 0  3.375 -2.514804579549941 0  0.5446428571428571 -2.455357142857143 0  2.766554087216865 -1.745795909102064 0  4.525516559010988 0.1490283123570637 0  3.87554132162248 -0.8280516069565407 0  4.53622906132958 -1.76963146596888 0  0.4243951612903226 1.875 0  0.554851858345021 2.446861709948876 0  5.575604838709677 -1.875 0  5.445148141654979 -2.446861709948876 0  4.875 -2.575604838709677 0  1.440573466105381 1.721823466105381 0  2.193519495405082 1.631799415080963 0  5.472630128027442 -1.330813078900983 0  4.750126894286386 1.343813447143193 0  5.607142857142857 -0.375 0  2.625 2.607142857142857 0  0.3921763197810531 0.375 0  5.60901753622775 0.3750000000000001 0  1.125 2.613454943235572 0  3.701856738980915 1.163867513386733 0  3.736112850688509 1.696746876851408 0  3.519183195491339 0.06065128742606851 0  3.973620778217027 -1.693401606145563 0  0.8125 -1.444978632478633 0  1.256657745408029 -0.6381828923025001 0  0 -1.125 0  5.019997778514942 0.6475044429701156 0  4.125 3 0  1.285569332703024 0.8955310332120207 0  0 -0.375 0  0.4638922275641027 -0.5625 0  2.056635259780241 -0.07226025978024064 0  2.130475508371123 -1.000827820434028 0  2.677484372338113 -1.267299126394495 0  2.848680878891876 -0.4956836878192376 0  4.937901885089369 -0.3340245904575954 0  4.393563081308854 1.919544166973803 0  4.053859126323572 0.2813938488760716 0  1.181051704329518 0.1167440895674965 0  1.971354166666667 2.607142857142857 0  4.875 3 0  2.519350561152006 0.08093582719875507 0  3.139443301924015 -1.442524927271905 0  6 2.625 0  1.849169256239503 1.945480934753207 0  1.867196483071171 0.7892354369530077 0  1.192506522009051 -1.184888428863342 0  3.375 3 0  3.603234392481833 2.536866305538572 0  3.846752908916648 -2.537707634073423 0  2.014339897513945 -1.886932065281681 0  4.038392037966526 0.8363324773944992 0  4.421242701722609 -2.552534687860327 0  3.715389848650903 -2.108856956172843 0  2.985668138820625 1.127780908772207 0  0.4500794934449803 -1.173696061598557 0  3.366760888116476 0.8891914618875614 0  1.869163043700093 -0.6107175804171328 0  2.175114838273305 -2.53928723780967 0  3.014417665538299 -2.241523065744933 0  2.625 -3 0  2.819968145332426 -2.617202329573456 0  5.625 1.3125 0  5.563263538826679 0.814027077653358 0  5.625 3 0  2.550041671270923 0.7074928970804664 0  4.014583091741168 2.59891853892166 0  0.6440729668673318 1.499523832583132 0  5.219449799568244 -1.660557808485412 0  3.474012636702472 -0.9300738420779746 0  0.8125 -2.142857142857143 0  1.875 -3 0  4.945010515846405 2.554471797033147 0  2.611388969012422 -0.8478354915063726 0  3.223746055611014 0.3371683159691745 0  4.843939757110898 -0.9483610977948225 0  4.66556954816842 -2.220888354477256 0  4.125 -3 0  4.448108395110625 -0.2524000502731018 0  5.63671875 2.05078125 0  2.822484133964224 1.491327727709286 0  3.378213092764193 1.903125093887009 0  5.607142857142858 -0.9231200445788541 0  2.12639693023183 1.100450516019641 0  5.625 -3 0  0.375 3 0  0 2.625 0  6 -2.625 0  0.3931307155906299 -0.01856779822591927 0  0.8549199714190221 -0.5218333744252657 0  0.7651723094668359 0.253768144801553 0  1.421989550604507 -2.133299471886336 0  1.582611957351803 -2.615166692128227 0  4.420331038793115 1.133144382396504 0  0.375 -3 0  0 -2.625 0  5.078156723571596 1.54697017071479 0  1.877250715260938 -1.288801575378032 0  2.409169073010687 -1.916147168931784 0  1.146151077069952 -0.268000681695328 0  1.726784828652036 0.1335728643263411 0  2.745628549924675 0.3838821021397905 0  3.011490900297165 2.613625569196862 0  5.62463365164608 -4.137655439684362e-05 0  1.875 3 0  1.125 3 0  6 0.375 0  2.625 3 0  6 -1.125 0  6 -0.375 0  4.875 -3 0  6 -1.875 0  3.375 -3 0  1.125 -3 0  0 -1.875 0  0 0.375 0  0 1.125 0  0 1.875 0  6 1.125 0  6 1.875 0  4.813017731148975 0.9677363687196439 0  2.807371623148303 2.264962208227767 0  0.3692953377255688 0.7436406761680247 0  5.615625 2.615625 0  0.9395725521479794 0.9812935874921043 0  1.390920759130215 1.238984550166515 0  0.9588795022085095 1.672288500195331 0  0.87712392565124 -2.641031728267331 0  0.3665732993114588 -1.532068934251388 0  1.841944504733106 1.591700334213738 0  4.832970185136452 0.3385359233091246 0  4.169083540479082 -0.5746148619765254 0  5.281697083409333 -0.2046640461936881 0  4.072845380968044 1.784516523483641 0  1.293029195762321 -1.543079049035419 0  4.878733886054284 -1.720697370582964 0  3.609167475697567 -1.687579152754035 0  4.836981942878573 2.222259978217028 0  4.204938267037067 -0.9128589669335569 0  5.183079748175263 -1.111742407358677 0  1.469404041858679 2.654509729682302 0  1.22880920402559 2.273525645756405 0  4.566761045622856 -1.414165869120005 0  4.531680518427715 1.606803989975667 0  1.918929241273175 2.27471131819245 0  3.590183783343969 2.184680610175416 0  1.85683899811842 0.4533569963423589 0  1.173935704088662 0.4636872214645547 0  2.116602160898525 -2.207718541460878 0  4.51821874648995 -1.042568353750147 0  2.721551512787618 -0.1859357475290837 0  5.294921875 2.001953125 0  5.288671874999999 2.670703125 0  2.199940744527116 0.7756512213396931 0  4.090519467638897 1.163401080812838 0  2.298177083333333 2.670581371753247 0  2.484362362207526 -2.687319997637033 0  3.300530569898859 1.207053005217563 0  3.936078051808127 -1.362164062673065 0  5.341218841330105 0.5689885832563615 0  4.226314635599414 0.5638853401248238 0  2.524510956818563 1.635483567726497 0  0.3219546452225031 1.389066019009203 0  3.139061555368706 -0.3133905221155423 0  3.145569907612562 -0.6461828528638952 0  3.701427442033566 -0.2272880199383185 0  1.686782510365738 -1.934662341426927 0  2.427696494631844 1.944064773844184 0  3.901817839425732 1.422433381251312 0  2.356489883772755 -0.2025512972825912 0  4.820757576351118 -0.01647699434507374 0  3.064415631228375 1.809719380809516 0  4.643002705009462 2.69782572459795 0  4.31624250429496 2.728112685900672 0  1.520100694408069 -1.314302747998057 0  3.754559308601717 -0.5375020107416889 0  0.25 -2.0625 0  0.8125 -1.826636904761905 0  4.861738621091127 -0.6367294570749906 0  1.545149590740081 2.015832101819233 0  3.857113324620078 0.04127675193819436 0  0.3162874907704933 -0.864918315983958 0  4.21293081604216 2.352874368135467 0  3.123697687162562 -2.708090473740421 0  3.415275466010259 -2.202892416689829 0  3.601103065320932 -2.727566580522146 0  1.558629964945672 -0.5289921609136927 0  3.324859026263307 -1.198136798699183 0  2.424350759683917 -1.092246517929194 0  2.789248065239812 0.8954629970670158 0  0.8882026075771248 2.364936378889839 0  0.8066140242673685 2.679750706449505 0  4.504454978490482 0.4491616076730165 0  4.26881784709759 -0.009649566552704852 0  1.313479173834523 -2.758675889510418 0  1.120577805361368 -2.179971784090952 0  3.734048623985226 0.8602850349907256 0  3.527828882622877 1.432983527791925 0  1.959527908877504 -1.578124930685265 0  0.7602573574724077 1.220872343399509 0  0.6691217533356228 0.8531987603309893 0  1.877213035764122 -2.564340152892596 0  3.304349402914068 2.552016594979913 0  4.285565286275464 -1.569057178671076 0  4.227521511146333 -1.876903861267543 0  5.34375 1.40625 0  5.71875 1.59375 0  1.56245959534423 0.766197796710638 0  0.2458241530773257 2.4375 0  0.2794123857609179 2.138568368155198 0  5.754175846922674 -2.4375 0  5.720587614239082 -2.138568368155198 0  0.6472458227887359 2.124973059628837 0  5.124241021325378 -2.352544055105642 0  5.189172233440652 -2.675873509996353 0  5.364643151640443 -2.12768524739804 0  2.298896485720138 1.348573610321417 0  0.6008689899200503 -2.745193425346304 0  0.307092513690391 -2.651812055231556 0  0.2683745826107009 -2.363146293324415 0  0.5223214285714285 -2.165178571428571 0  0.5169611136983336 2.740349995819724 0  5.607469108596883 -2.699891746740618 0  2.138439274270545 1.947386893596098 0  1.25507379660067 1.953406658386351 0  4.135759889512124 -2.476847355718572 0  2.548249345531056 -1.538893887888457 0  2.771010284190282 -2.05339728351
[...]
<CellData  Scalars="f_26-2"> 
<DataArray  type="Float64"  Name="f_26-2"  format="ascii">-9.0713660999513483e+08   -1.0855757100555997e+09   -1.6314765029210961e+09   -1.4011250401420429e+09   -1.5581843871932969e+09   -2.8667408857176147e+09   -9.9658481890234220e+08   -1.2956331863942012e+08   -1.1343968853577919e+08   -8.9858857599578929e+08   -7.6930082879747963e+08   -1.4090634475478590e+09   -5.2582852565547538e+08   -1.7566414423254299e+09   -1.5058991668093467e+08   -1.1631396376011555e+09   -1.4977192514314620e+09   -3.6674387114100188e+07   -1.1402839906978931e+09   -6.7282151930625618e+08   -2.0159844924917109e+09   -4.6296747725192469e+08   -1.2521673188320978e+09   -6.5034426890694547e+08   -9.0562732221062028e+08   -1.1614718937972841e+09   -2.0462801704330854e+09   -7.0325279515944815e+08   -7.2655295133368123e+08   -1.0819010388994360e+09   -5.2719358760118186e+08   -5.3790512365179718e+08   -9.4061133047197413e+08   -8.0227515667189121e+08   -9.5116116839228690e+08   -1.0707855573060853e+09   -1.3308454536710377e+09   2.5819375337101451e+08   -1.6570454110603049e+09   -1.1486850960437152e+09   -4.4578252687175733e+08   -1.0405396005592555e+09   -6.9349231346761656e+08   3.3842798090657210e+08   -3.6958929910606413e+09   -1.5982083662341967e+09   -2.0817963765340188e+09   -5.7218853513728786e+08   -1.2360920614434772e+09   2.0454000236447807e+07   -1.3591136146487620e+09   -9.3392023972952843e+08   -5.4388431171565807e+08   -1.2144360500924933e+09   -9.8411460413847840e+08   -9.7812645703051925e+08   -1.6128897088038390e+09   -1.2288832878008299e+09   -1.6064380193756109e+08   -1.5274971308443999e+09   -6.5555015259449685e+08   -1.0436324201621435e+09   -1.6097535621759605e+09   -9.3057353192830849e+08   -3.0243697632080644e+08   -1.1488410330055659e+09   -1.6722084492124636e+09   -2.1751001072191364e+08   -4.3696992899155253e+08   -1.1922881857188277e+09   -6.0495501407952762e+08   -5.1130317991586149e+07   -2.9033272749950105e+08   -9.5189297156302941e+08   -8.0272416782893562e+08   -1.1912655361667022e+08   -5.1604730260216475e+08   -9.8734020615750957e+08   -1.8205840473095233e+09   -2.9155548391369814e+08   -5.7514077507602727e+08   -8.6387660957407212e+08   -1.2262530291871812e+09   -1.9895113809812152e+09   -7.2050667093709242e+08   -1.1455057397839549e+09   -3.7271331012274933e+08   -9.5288784216613925e+08   -9.4085152817757213e+08   -1.0117980343824142e+09   -1.1841235823519068e+09   -1.0797100357058802e+09   -2.0172750935114634e+09   -2.3627094394836137e+08   1.9581412966165921e+08   -1.8814400182280846e+09   -8.6398774895835325e+07   -7.7235960855215514e+08   -7.7378660613988495e+08   -5.2735151912058711e+08   -5.7755880891099727e+08   -2.0483040818798590e+08   -6.2179402084686315e+08   -4.8803693295768136e+08   -1.0504716972897319e+09   -1.8129709657699642e+09   -1.4946889112867177e+09   -7.8519837058750308e+08   -1.5601358157098126e+08   -6.8108239518574047e+08   -6.9667773883073866e+08   -4.5746335704660952e+08   -5.1777505122140533e+08   -7.8964978300805151e+08   -9.1891018681828797e+08   -1.6643803009125197e+09   -2.4260767742699027e+09   -4.6757229807192427e+08   -5.4780070520156288e+08   -2.2969450317942543e+09   -1.4362935960541975e+08   -1.2206163771422114e+09   -1.1895533222628939e+09   -3.7695724928349084e+08   -1.0088491928408951e+09   -5.1970044010797554e+08   -3.0461749493002963e+09   -9.2432634908117771e+08   -2.2577933359412632e+09   -5.1149340583316302e+08   -7.6589714213481998e+08   -1.0340123049763962e+09   -1.0353405711957402e+09   -3.0826440356266457e+08   -8.6642261931408256e+07   -5.0328163720850134e+08   -1.1402881747717373e+09   -2.4078222782745471e+09   -3.2385144564293486e+08   -1.3512301805119298e+09   -6.8435763704128683e+08   -6.3503078522355175e+08   -1.6556704666786065e+09   -1.7560797701313097e+09   -2.0695922233683333e+08   -5.0317990332485180e+09   -1.2161673861569673e+08   -1.3961427855399096e+09   -8.7765034047947311e+08   -2.9276809350335461e+08   -6.5191247020703840e+08   -8.2776427055300415e+08   -9.1570524361397207e+08   -1.2320952670391886e+09   -1.0773556085617471e+09   -7.1340496034735489e+08   -1.1698496609905293e+09   1.2064071910947555e+08   -2.0665853066285338e+09   -4.4076032051832283e+08   -1.8949350599920368e+09   -7.5651136429164612e+08   -9.3580756476357436e+08   -1.8103403249006145e+09   -5.0496214490164375e+08   -1.7766053374501424e+09   -8.5943601636230385e+08   -1.4942687549553878e+09   -8.2520670182647014e+08   -7.2907134952790976e+08   -2.3089659600940895e+08   -3.5421800594065613e+08   -1.0910737395986197e+09   -3.0313883579627788e+08   -6.5896705755684030e+08   -2.2834641030675287e+09   -9.0461451533998919e+08   -6.6677156383598411e+08   -1.1878892331358988e+09   -4.1343742113688385e+08   -5.3303249150783795e+08   -1.4984271397885525e+08   -3.9998258285539758e+08   -6.3927781050732756e+08   -2.2464907639446459e+09   -2.0578930295388119e+09   -1.2999896658003259e+09   -1.1461436804410441e+09   8.8236976642261043e+07   -6.7359850123708403e+08   -3.0541677413776225e+08   -1.1893525054140680e+09   -2.1314332380069795e+08   -9.5477010370290589e+08   -1.8596728216644841e+08   -1.7359601638935847e+09   -1.4361465364250293e+09   -1.1776103007360251e+09   -3.9749886954231358e+08   -5.3559756741290396e+08   -1.0235094070041929e+08   -1.1468168843406849e+09   -1.3511000739968889e+09   -9.6408909445064688e+08   -1.3487179509758859e+09   -7.5401225266534638e+08   -3.0132031308170635e+08   -1.9895986048714461e+09   -8.5899049754838812e+08   -1.2622971127855456e+09   1.2204569934994690e+08   -4.9093652698202199e+08   -1.0073400794828615e+09   -1.6573052061858723e+08   -2.2013179932175770e+09   -1.0899891406138725e+09   -1.6481044089635131e+09   -6.4878023515197861e+08   -5.3295903867588794e+08   -2.3201635218089085e+09   -4.2971716460957205e+08   -1.2927329488120382e+09   -2.0672594463915048e+09   -9.4998300270194745e+08   -1.1864303043225508e+09   -1.1644565959301999e+09   -1.7811647221657300e+08   -4.7988389316771919e+08   2.8819814442706805e+08   -7.2757501556277919e+08   1.9649995635132700e+07   -1.9634553193923861e+08   -5.2313620323225069e+08   -6.4719614800928378e+08   -1.6077029139973454e+09   -1.5711250062969825e+09   -1.1110554405041363e+09   -5.5574498412345028e+08   -4.0772322561877173e+08   -3.9796562197343725e+08   -2.0657030535593766e+08   -9.3344243420794713e+08   -1.4351944393735452e+09   -4.7254676846007252e+08   -1.7976679420492773e+09   -6.4404708063940728e+08   -1.7751492739123502e+09   -5.7632691015701532e+08   -3.2831052514140725e+08   1.4285330494712245e+08   -2.9961001557433772e+08   -3.2756827786324710e+08   -1.1976129959186730e+09   -8.4139788894946873e+08   -5.2645693497172362e+08   -3.8635509076065516e+08   -4.8501316486089081e+08   -6.5452097951663947e+08   2.1831113849706191e+08   -7.1471389181526148e+08   -4.1071960878716552e+08   -1.8709207284349105e+09   -6.4649856963118827e+08   -9.5776738008821988e+08   -7.0644207531909561e+08   -1.0583451647584252e+09   -4.2091561215669960e+08   -7.0030773302122474e+08   -1.5297394845327368e+09   -6.9076801039745957e+07   -9.3986363432799685e+08   -1.4333233100903623e+09   -1.7445799540606849e+09   -1.4964685380595312e+09   -7.5281949483194917e+07   -3.0582511255639565e+08   -1.4517283222201204e+08   -1.1843680009064627e+09   -6.9376087959195375e+08   -3.1910300384487987e+08   -8.6777038044223881e+08   -1.6514702410693190e+08   -1.2592493675350745e+09   -6.7976579016736424e+08   -3.7643670974257559e+08   -2.8632700919323581e+08   -1.0067537814037656e+09   -9.9663691454949307e+08   -7.9180209156741464e+08   8.5012153773681745e+07   -1.1319286104673555e+09   -1.2375564168585601e+09   1.1276559204288518e+07   -3.9805979887436962e+08   -4.9723048548161304e+08   -8.9341487022533357e+08   -8.7731311443051207e+08   -1.9771273633140737e+08   -1.0179726988976305e+09   -2.6912662486886702e+09   -1.3566975518326709e+09   -8.0245194242846096e+08   -9.4055531263194823e+08   -6.0437434387310731e+08   -3.1408719308152848e+08   -4.2440557570526052e+08   -1.6114691024878204e+09   -1.6537432565622321e+08   -7.0072373452853239e+08   -4.6532335534134543e+08   -5.9136449544993806e+08   -7.1647457674342585e+08   -1.4130886466999557e+09   -6.8265171566574597e+08   -8.8449502953898013e+08   -6.3049572675767887e+08   -8.1763477934151268e+08   -1.0071894595529199e+09   -6.3345423769703710e+08   -1.5001301963276792e+09   -1.6318406535940850e+09   -4.9691691868394870e+08   -8.2232652959721708e+08   -1.3699711353283737e+09   -5.5947394472937441e+08   -7.9746615333586884e+08   -8.5075447459870446e+08   -1.2688896885075543e+09   -1.1930329972500346e+09   8.6861061923117042e+07   -1.2079070909621162e+09   -8.2540241477288187e+08   -1.1088409441174257e+09   -1.3107083911911826e+09   -8.6155013685347033e+08   -1.3324589951287405e+09   -4.1347068832949972e+08   -3.5012311054840428e+08   -7.2476273941014767e+08   -1.0566070496706500e+09   -2.8587586659104633e+08   -5.7245856481801236e+08   -5.1795705893260789e+08   -4.4334401580268884e+08   -3.7747490495294458e+08   -1.1123298689616723e+09   -5.2848880146474779e+08   -3.0563461872336245e+08   -1.0096894944753312e+09   -5.4503765795595562e+08   -5.4319683483967018e+08   -6.0587536926134276e+08   5.4983822571812451e+08   -1.4092521489352067e+09   -1.5934665466605310e+09   -4.3721569967612433e+08   -6.7736715684756696e+08   -4.2786034015958434e+08   -2.6404503276018015e+08   -5.6886724469865191e+08   -3.7273498300922543e+08   -1.8162208070664706e+09   1.4953594340485325e+07   -8.8822043680248260e+08   -3.6625039961719811e+08   -9.0343592391057611e+08   -1.6133366112331104e+09   -1.9170063812916000e+09   -8.6112227752445042e+08   -1.9186551038112783e+09   -5.4632502154789984e+08   -1.4154302204410260e+09   -3.8564811598237973e+08   -7.8972927907972813e+08   -4.7051247199775541e+08   -6.4500940383432698e+08   -1.0243262838658910e+09   -5.1498116061397511e+08   -1.4269834350970972e+09   -7.2066822767009842e+08   -3.5418295972268945e+08   -2.8293961388494432e+08   -7.8967471170860672e+08   -2.4203996852327797e+08   -8.4559960294333553e+08   2.9218729705892706e+08   -9.9218735204394293e+08   -7.3633430602404225e+08   3.1662400216770828e+08   -9.8840678328785157e+08   -4.0223488171278161e+08   -6.9031440740990818e+08   -7.5564049082804227e+08   -1.2126366924844766e+09   -7.7933255805666685e+08   -5.7793108347608078e+08   2.2724664023140961e+08   -1.9952545741734004e+09   -9.7179213840520573e+08   -8.7413766043508077e+08   -9.8343946331859910e+08   -4.4978757067646450e+08   -1.8783999167395204e+08   -5.7534550741733062e+08   -8.6709789639599085e+08   -2.0644473418535299e+09   -9.1300642318884873e+08   -3.2350000314504166e+09   -8.7082510406482112e+08   -1.6086284145519714e+09   1.4732720798625660e+08   -8.2799979905813706e+08   -8.4148771168464100e+08   -1.6461556605715379e+08   -3.4482809958725148e+08   -1.1621709026065149e+09   -1.4828781312008312e+09   -2.0626257940368423e+08   -3.1768595870580107e+08   -5.3446264005996007e+08   -7.2657313561089242e+08   -1.3066250203515389e+09   -6.0669267854509652e+08   -1.9982352654915345e+09   -4.1777104703898180e+08   -5.0258658671312249e+08   -7.5926046114128911e+08   -2.1140898995074877e+08   1.9944395861832628e+08   -9.5767598189097607e+08   -7.1745345206239784e+08   -8.7730043108986235e+08   -4.9775603172013861e+08   -6.5253971212046647e+08   -6.0874786920553915e+07   -1.4461284347894011e+09   -9.2902240183305100e+07   -2.7817493287497276e+08   -5.9621933533649600e+08   3.3791060502578840e+06   -1.3704299012524557e+09   -1.2233681512413936e+09   -5.1169327591641474e+08   -1.4832003693795457e+09   -1.6338351371727698e+09   -1.0802247005011773e+09   -3.4855159104635590e+08   -8.6615420640778708e+08   -7.2809551371513331e+08   -9.1223678537241399e+08   -3.9479899294020557e+08   -1.6640951317645762e+09   -1.4593821003346283e+09   -1.0851859939885933e+09   -9.2306454243147612e+08   -5.8911697496028826e+07   -1.5497019183471913e+09   -8.5474160956124425e+08   -1.0491775462680328e+09   -7.8972165781881309e+08   -1.6005215575400081e+09   -4.3714122800021309e+08   -4.7647180783726442e+08   -1.6913031678814170e+08   1.5327807669779137e+08   -1.4490897496413698e+09   -8.9196917384954774e+08   -1.5012229399015155e+09   -3.0576831557961974e+09   -1.2069133595371342e+09   -7.5896356890022433e+08   -5.0448622277662826e+08   -2.3396032861881530e+08   -8.5849233169205916e+08   -1.5854780756899302e+09   -5.2115852925849944e+08   -1.0699742799348774e+09   -7.2164694390003633e+08   -8.4705473670907557e+08   -4.8145633644812155e+08   -1.8119342820497515e+09   -1.0379454166806931e+09   -1.0428794135667120e+09   -6.4678339421365130e+08   -9.2099012280285323e+08   -2.6484502620759692e+09   -1.0660977011354545e+09   -9.5650835848795664e+08   -6.4765309631158829e+08   -6.1269259706254172e+08   -7.0221444657894659e+08   -3.1894830724807417e+08   -4.9829487948079902e+08   -2.0360888567496035e+08   -3.5388625634147781e+08   -6.7318393785373712e+08   -1.4562061755118697e+09   1.1377575214026810e+08   1.1470436023852327e+09   -8.1311130235847294e+08   -1.5342419020350203e+08   -8.1868223938182402e+08   -6.5096550819062793e+08   -4.3704799484067172e+08   -1.1458752035263262e+09   -1.0982903813443067e+09   -1.9493047177079408e+09   -2.8230353876383901e+08   -6.2157542953155088e+08   -6.7712817351811659e+08   -2.4547475354612835e+07   1.7054368014028782e+08   -1.4869241141545517e+09   -1.3621393008158052e+08   -4.5428586066253358e+08   -1.4225962708352315e+09   -1.6603051489938817e+09   -1.3764583067215853e+09   -4.3472211903124750e+07   -2.0786410547210677e+09   -7.5198001254777610e+08   -1.8473736922959523e+09   -4.8250834468732037e+07   -2.3253266539500928e+08   -6.0446322795365655e+08   -5.9631909204384673e+08   -1.4324990599191256e+09   -8.3149626320297992e+08   -3.4418246963070267e+08   -4.3767339900014436e+08   -1.1197986136021676e+09   -2.4506750669762802e+08   -2.9430139580568331e+08   1.8286194381981646e+06   2.1326508240326312e+08   -1.1288755420268977e+08   -6.6927066243560076e+08   -1.1760582703540525e+09   -2.3380960714478989e+09   -4.8818818178395206e+08   -3.3865118548117900e+08   -3.0826079722435415e+08   -1.7136399340396495e+09   -1.0561344398970789e+09   5.9984003174439633e+08   -8.8579770971386874e+08   -3.6866835266114980e+08   -1.0294039364842492e+09   -1.1357375614249370e+09   -1.0285915892851944e+09   -1.0093643366591161e+09   -8.2223674891901660e+08   -1.3662806510334387e+09   -7.1030377760334957e+08   -8.5910943463824570e+08   1.7568307870457444e+08   -8.3091924897248662e+08   -7.3271826014702344e+08   -1.0465626704741951e+09   -1.6499655083012693e+09   -5.6087915629663444e+08   -4.7405933683747017e+08   -1.0472721021788769e+09   -5.3340133845259333e+08   -1.4136237082197995e+09   -7.9374345142951834e+08   -1.1409629816855700e+09   -1.0350296465406219e+07   -4.3743497874854946e+08   -6.0394410079919064e+08   -4.8465406077315128e+08   -4.4621668074036247e+08   -5.9779295931353939e+08   -7.1904199509275746e+08   -6.6628804243274713e+08   -1.1085364782663989e+09   -1.7352130610584574e+09   -5.8406741978926703e+07   -1.0852774491700830e+09   -4.7995910090168345e+08   -7.2994931779399097e+08   -9.5473922614194191e+08   -1.7979942723728223e+09   -4.8501812872129434e+08   -1.5012179338937809e+09   -5.0379120231903201e+08   -7.2768410907295740e+08   -2.1557627973039186e+08   3.1697746574945445e+05   -6.9110485936422086e+08   -7.3702257411713457e+08   -1.3426629371708748e+09   -1.4611348658173913e+08   -1.7360818680090338e+08   -3.2830991562358063e+08   -7.9486961827526164e+08   -1.2222872731593862e+09   -2.4453407093764353e+09   -2.0622942427353069e+08   -2.6639692561676484e+08   -8.3686440015678501e+08   -5.7253875319115651e+08   -1.5146904677566810e+09   -5.8607546897439706e+08   -9.7538798816322267e+08   -2.5353694975801331e+08   -1.8677330083649106e+09   -1.0830393275194476e+09   -8.9426635280882668e+08   -1.2351098119083846e+09   -1.2232560957368796e+09   -9.8783680280690694e+08   -4.1745451279390723e+08   -5.6423765475191367e+08   -5.7631967427937794e+08   -7.0391512329388785e+08   -7.5236390729605901e+08   -3.5017985674322689e+08   -6.2322447841723776e+08   -8.8342776834895217e+08   -8.9951216595382547e+08   -1.1907598515856159e+08   -9.7152342975925982e+08   -7.4146592764747798e+08   -1.2320174870367835e+09   -4.2655126686811503e+06   -3.7555997416099256e+08   -9.7078344773609924e+08   -1.9161610457279605e+08   -4.9471085142999333e+08   -1.0611731525578107e+08   -4.3929427845548534e+08   -5.6293608724045110e+08   -1.1063020043707190e+08   -2.5943656043890631e+08   -1.5037857197226331e+09   -7.5821399783810806e+08   -5.4947169913062394e+08   -6.8454270272423017e+08   -7.5261133972381401e+08   -9.5755198688840699e+08   -4.5300214283137041e+08   1.3444789058246698e+07   5.5087645326104484e+07   -4.9422527624993712e+08   -7.5441022501345620e+07   -4.1024981359736252e+08   3.6934074835263707e+07   -8.1848631873397791e+08   -7.1372316893668294e+08   -6.4847409960339349e+06   -4.6099920816067106e+08   -6.5457728470588803e+08   -3.5702324054386508e+08   -6.4073279020373821e+08   -1.0824266982461510e+09   -1.3581386135877676e+09   -4.4405389993411148e+08   -1.5790458906745019e+09   -9.1104678982102048e+08   -5.4652840893457317e+08   -1.4248724196102116e+09   -9.8349512704608583e+08   -1.1340658587143475e+08   -2.1754798504327551e+07   -5.2148616916842085e+08   -1.2251036292922790e+09   -7.2110101187412465e+08   -4.8834615946628380e+08   -6.4195168287288159e+07   -3.3621737218678004e+08   -7.3058067216433907e+08   -3.3728398892097992e+08   -7.6274935594899863e+07   2.5260124693586153e+08   -4.5208879711556625e+08   -7.2185014944806087e+08   -1.8260956004229400e+08   -1.3646397900845405e+08   -1.0972090055136216e+09   6.8888820279819280e+07   -7.7936926196044564e+08   -8.7356446054085597e+07   -8.7157712702798629e+08   -6.4836863844339645e+08   -5.5961897842883837e+08   -6.0111640799931705e+08   -1.1939841351555598e+08   -6.0666303129690015e+08   -1.9055729639549729e+08   6.6067354694272326e+06   9.1276810429448500e+07   1.8657998422885376e+08   -9.7541315468439364e+08   -5.0952610763334638e+08   -6.4798256066108644e+08   -1.7531658359292272e+08   3.8031928475166643e+08   -4.7309966949441147e+08   -1.6854109216199372e+09   -6.1496746852004516e+08   -7.2585596470639753e+08   -7.1071497391379654e+08   3.2689091676801041e+07   -1.4716414226265457e+08   2.2297820439038995e+08   -5.1328956307644963e+08   -4.9398579237368906e+08   -9.8956548060073853e+08   -1.0376408541721425e+09   -9.5040193360823905e+08   -1.3135048262130270e+09   -8.1215709643507922e+08   -9.1495955278097439e+08   -1.1034243462730691e+09   -1.5541441247787964e+09   -1.0086553596133629e+09   -5.0097839014334863e+08   -8.9666379251387751e+08   -1.2259239436437058e+09   -2.4034449890077862e+08   -7.3294903608751476e+08   -6.1617642826471746e+08   -8.8811624082773316e+08   -4.6365095801101077e+08   -1.7210424123999316e+07   -9.7827799576394808e+08   -2.0027945895347304e+09   -7.5425629738885331e+08   -2.4533799141537350e+08   -8.5128804176541698e+08   -1.9792158902490672e+06   -2.9592783562437403e+08   -1.5424965512978378e+08   1.4223120767987448e+08   -2.7046167452767259e+08   -1.1101127122066835e+08   -8.4051103074942648e+08   -9.0481715653703010e+08   -1.0279995955466057e+08   -5.5799816316503644e+08   -1.0204533172172874e+09   2.8096240519390881e+08   7.6244912634981370e+08   -1.0629328747993578e+09   6.5935847288146889e+08   -9.3337897572326946e+08   -1.1578971230354021e+09   -2.4741938317364183e+08   8.4800742234508619e+07   -1.3954611724302804e+09   -4.8902464355985403e+08   2.1580542576856162e+07   -9.3065950712234855e+08   -6.5697969387769890e+08   -1.0423283989693244e+08   -1.3413228800046778e+09   -7.0704682209693956e+08   -1.5159391406082547e+08   -4.2756204912771034e+08   -2.4503080774407798e+08   -5.3381658374125153e+08   -6.7658899377810001e+08   -4.4289894951342899e+08   -1.1505205089574819e+09   -2.3424076828835100e+08   -7.6974823355067164e+07   -1.024710813712563