<?xml version="1.0"?>
<VTKFile type="UnstructuredGrid"  version="0.1"  >
<UnstructuredGrid>
<Piece  NumberOfPoints="2534" NumberOfCells="4892">
<Points>
<DataArray  type="Float64"  NumberOfComponents="3"  format="ascii">0 3 0  0 -3 0  6 -3 0  6 3 0  3 -3 0  6 0 0  3 3 0  0 0 0  3 0 0  0 -1.5 0  1.5 -3 0  1.5 3 0  0 1.5 0  6 -1.5 0  4.5 -3 0  6 1.5 0  4.5 3 0  4.25 -1.25 0  1.75 1.25 0  2.25 -1.5 0  4.5 0.75 0  1.541666666666667 -0.2083333333333333 0  3.219827586206896 1.521551724137931 0  1.125 -1.875 0  4.875 1.875 0  0.8702651515151515 0.631628787878788 0  2.25 2.214285714285714 0  3.316176470588236 -1.904411764705882 0  5.214285714285714 -0.75 0  5.03125 -2.03125 0  0.96875 2.03125 0  4.041666666666667 -0.2083333333333333 0  0.8205128205128206 -0.9134615384615387 0  3.942582294752138 2.189194098250713 0  3.061487638533674 -0.968243819266837 0  2.192708333333333 0.4427083333333334 0  4.157850026972511 -2.182329047049442 0  2.331456616463011 -0.5285296485744057 0  3.654761904761905 0.5654761904761902 0  5.25 1.125 0  2.563673341677096 -2.280663329161452 0  5.126674107142857 0.1283482142857142 0  0.75 -3 0  0 -2.25 0  6 2.25 0  5.25 3 0  0.7680051888903191 -0.1384245958639337 0  1.617229471026718 -1.006949429867069 0  4.218940341429579 1.468686552856807 0  3.75 -3 0  2.25 -3 0  0.75 3 0  5.25 -3 0  6 -0.75 0  0 -0.75 0  0 0.75 0  2.25 3 0  6 -2.25 0  0 2.25 0  3.75 3 0  6 0.75 0  1.787573018358365 -2.279142327213878 0  3.195025188237337 2.273430909158844 0  2.528159645294386 1.151699106559287 0  1.041598427383826 1.322848427383826 0  1.520951704545454 0.4634232954545453 0  1.580357142857143 2.325892857142857 0  4.919642857142857 -1.361607142857143 0  4.54981623521892 -0.6483700862895494 0  2.99317863826574 0.6697091957925523 0  3.450169349029507 -0.4574865881858001 0  3.605016126014028 -1.323102984840902 0  2.745144658907412 1.882241931337371 0  0.4898065586600511 1.092777516238393 0  0.5 -1.875 0  1.217028489597945 -2.469323836800685 0  1.659912685567181 -1.604738056701542 0  5.4375 1.6875 0  5.34375 2.34375 0  4.52741779500503 2.384139265001677 0  3.375 -2.514804579549941 0  0.5446428571428571 -2.455357142857143 0  2.766554087216865 -1.745795909102064 0  4.525516559010988 0.1490283123570637 0  3.87554132162248 -0.8280516069565407 0  4.53622906132958 -1.76963146596888 0  0.4243951612903226 1.875 0  0.554851858345021 2.446861709948876 0  5.575604838709677 -1.875 0  5.445148141654979 -2.446861709948876 0  4.875 -2.575604838709677 0  1.440573466105381 1.721823466105381 0  2.193519495405082 1.631799415080963 0  5.472630128027442 -1.330813078900983 0  4.750126894286386 1.343813447143193 0  5.607142857142857 -0.375 0  2.625 2.607142857142857 0  0.3921763197810531 0.375 0  5.60901753622775 0.3750000000000001 0  1.125 2.613454943235572 0  3.701856738980915 1.163867513386733 0  3.736112850688509 1.696746876851408 0  3.519183195491339 0.06065128742606851 0  3.973620778217027 -1.693401606145563 0  0.8125 -1.444978632478633 0  1.256657745408029 -0.6381828923025001 0  0 -1.125 0  5.019997778514942 0.6475044429701156 0  4.125 3 0  1.285569332703024 0.8955310332120207 0  0 -0.375 0  0.4638922275641027 -0.5625 0  2.056635259780241 -0.07226025978024064 0  2.130475508371123 -1.000827820434028 0  2.677484372338113 -1.267299126394495 0  2.848680878891876 -0.4956836878192376 0  4.937901885089369 -0.3340245904575954 0  4.393563081308854 1.919544166973803 0  4.053859126323572 0.2813938488760716 0  1.181051704329518 0.1167440895674965 0  1.971354166666667 2.607142857142857 0  4.875 3 0  2.519350561152006 0.08093582719875507 0  3.139443301924015 -1.442524927271905 0  6 2.625 0  1.849169256239503 1.945480934753207 0  1.867196483071171 0.7892354369530077 0  1.192506522009051 -1.184888428863342 0  3.375 3 0  3.603234392481833 2.536866305538572 0  3.846752908916648 -2.537707634073423 0  2.014339897513945 -1.886932065281681 0  4.038392037966526 0.8363324773944992 0  4.421242701722609 -2.552534687860327 0  3.715389848650903 -2.108856956172843 0  2.985668138820625 1.127780908772207 0  0.4500794934449803 -1.173696061598557 0  3.366760888116476 0.8891914618875614 0  1.869163043700093 -0.6107175804171328 0  2.175114838273305 -2.53928723780967 0  3.014417665538299 -2.241523065744933 0  2.625 -3 0  2.819968145332426 -2.617202329573456 0  5.625 1.3125 0  5.563263538826679 0.814027077653358 0  5.625 3 0  2.550041671270923 0.7074928970804664 0  4.014583091741168 2.59891853892166 0  0.6440729668673318 1.499523832583132 0  5.219449799568244 -1.660557808485412 0  3.474012636702472 -0.9300738420779746 0  0.8125 -2.142857142857143 0  1.875 -3 0  4.945010515846405 2.554471797033147 0  2.611388969012422 -0.8478354915063726 0  3.223746055611014 0.3371683159691745 0  4.843939757110898 -0.9483610977948225 0  4.66556954816842 -2.220888354477256 0  4.125 -3 0  4.448108395110625 -0.2524000502731018 0  5.63671875 2.05078125 0  2.822484133964224 1.491327727709286 0  3.378213092764193 1.903125093887009 0  5.607142857142858 -0.9231200445788541 0  2.12639693023183 1.100450516019641 0  5.625 -3 0  0.375 3 0  0 2.625 0  6 -2.625 0  0.3931307155906299 -0.01856779822591927 0  0.8549199714190221 -0.5218333744252657 0  0.7651723094668359 0.253768144801553 0  1.421989550604507 -2.133299471886336 0  1.582611957351803 -2.615166692128227 0  4.420331038793115 1.133144382396504 0  0.375 -3 0  0 -2.625 0  5.078156723571596 1.54697017071479 0  1.877250715260938 -1.288801575378032 0  2.409169073010687 -1.916147168931784 0  1.146151077069952 -0.268000681695328 0  1.726784828652036 0.1335728643263411 0  2.745628549924675 0.3838821021397905 0  3.011490900297165 2.613625569196862 0  5.62463365164608 -4.137655439684362e-05 0  1.875 3 0  1.125 3 0  6 0.375 0  2.625 3 0  6 -1.125 0  6 -0.375 0  4.875 -3 0  6 -1.875 0  3.375 -3 0  1.125 -3 0  0 -1.875 0  0 0.375 0  0 1.125 0  0 1.875 0  6 1.125 0  6 1.875 0  4.813017731148975 0.9677363687196439 0  2.807371623148303 2.264962208227767 0  0.3692953377255688 0.7436406761680247 0  5.615625 2.615625 0  0.9395725521479794 0.9812935874921043 0  1.390920759130215 1.238984550166515 0  0.9588795022085095 1.672288500195331 0  0.87712392565124 -2.641031728267331 0  0.3665732993114588 -1.532068934251388 0  1.841944504733106 1.591700334213738 0  4.832970185136452 0.3385359233091246 0  4.169083540479082 -0.5746148619765254 0  5.281697083409333 -0.2046640461936881 0  4.072845380968044 1.784516523483641 0  1.293029195762321 -1.543079049035419 0  4.878733886054284 -1.720697370582964 0  3.609167475697567 -1.687579152754035 0  4.836981942878573 2.222259978217028 0  4.204938267037067 -0.9128589669335569 0  5.183079748175263 -1.111742407358677 0  1.469404041858679 2.654509729682302 0  1.22880920402559 2.273525645756405 0  4.566761045622856 -1.414165869120005 0  4.531680518427715 1.606803989975667 0  1.918929241273175 2.27471131819245 0  3.590183783343969 2.184680610175416 0  1.85683899811842 0.4533569963423589 0  1.173935704088662 0.4636872214645547 0  2.116602160898525 -2.207718541460878 0  4.51821874648995 -1.042568353750147 0  2.721551512787618 -0.1859357475290837 0  5.294921875 2.001953125 0  5.288671874999999 2.670703125 0  2.199940744527116 0.7756512213396931 0  4.090519467638897 1.163401080812838 0  2.298177083333333 2.670581371753247 0  2.484362362207526 -2.687319997637033 0  3.300530569898859 1.207053005217563 0  3.936078051808127 -1.362164062673065 0  5.341218841330105 0.5689885832563615 0  4.226314635599414 0.5638853401248238 0  2.524510956818563 1.635483567726497 0  0.3219546452225031 1.389066019009203 0  3.139061555368706 -0.3133905221155423 0  3.145569907612562 -0.6461828528638952 0  3.701427442033566 -0.2272880199383185 0  1.686782510365738 -1.934662341426927 0  2.427696494631844 1.944064773844184 0  3.901817839425732 1.422433381251312 0  2.356489883772755 -0.2025512972825912 0  4.820757576351118 -0.01647699434507374 0  3.064415631228375 1.809719380809516 0  4.643002705009462 2.69782572459795 0  4.31624250429496 2.728112685900672 0  1.520100694408069 -1.314302747998057 0  3.754559308601717 -0.5375020107416889 0  0.25 -2.0625 0  0.8125 -1.826636904761905 0  4.861738621091127 -0.6367294570749906 0  1.545149590740081 2.015832101819233 0  3.857113324620078 0.04127675193819436 0  0.3162874907704933 -0.864918315983958 0  4.21293081604216 2.352874368135467 0  3.123697687162562 -2.708090473740421 0  3.415275466010259 -2.202892416689829 0  3.601103065320932 -2.727566580522146 0  1.558629964945672 -0.5289921609136927 0  3.324859026263307 -1.198136798699183 0  2.424350759683917 -1.092246517929194 0  2.789248065239812 0.8954629970670158 0  0.8882026075771248 2.364936378889839 0  0.8066140242673685 2.679750706449505 0  4.504454978490482 0.4491616076730165 0  4.26881784709759 -0.009649566552704852 0  1.313479173834523 -2.758675889510418 0  1.120577805361368 -2.179971784090952 0  3.734048623985226 0.8602850349907256 0  3.527828882622877 1.432983527791925 0  1.959527908877504 -1.578124930685265 0  0.7602573574724077 1.220872343399509 0  0.6691217533356228 0.8531987603309893 0  1.877213035764122 -2.564340152892596 0  3.304349402914068 2.552016594979913 0  4.285565286275464 -1.569057178671076 0  4.227521511146333 -1.876903861267543 0  5.34375 1.40625 0  5.71875 1.59375 0  1.56245959534423 0.766197796710638 0  0.2458241530773257 2.4375 0  0.2794123857609179 2.138568368155198 0  5.754175846922674 -2.4375 0  5.720587614239082 -2.138568368155198 0  0.6472458227887359 2.124973059628837 0  5.124241021325378 -2.352544055105642 0  5.189172233440652 -2.675873509996353 0  5.364643151640443 -2.12768524739804 0  2.298896485720138 1.348573610321417 0  0.6008689899200503 -2.745193425346304 0  0.307092513690391 -2.651812055231556 0  0.2683745826107009 -2.363146293324415 0  0.5223214285714285 -2.165178571428571 0  0.5169611136983336 2.740349995819724 0  5.607469108596883 -2.699891746740618 0  2.138439274270545 1.947386893596098 0  1.25507379660067 1.953406658386351 0  4.135759889512124 -2.476847355718572 0  2.548249345531056 -1.538893887888457 0  2.771010284190282 -2.05339728351
[...]
<CellData  Scalars="f_26-2"> 
<DataArray  type="Float64"  Name="f_26-2"  format="ascii">-3.8810863747699382e+45   -4.7821828278511592e+45   -7.1117130578307293e+45   -6.1561587635753901e+45   -6.8191908221801197e+45   -1.2475621899088147e+46   -4.5312084478108773e+45   -5.8811969595842760e+44   -4.8808789705127151e+44   -3.8312230411509922e+45   -3.3476706438318600e+45   -6.8871640456217265e+45   -2.5489312106562593e+45   -8.3839409637276347e+45   -7.2296763360725360e+44   -5.1523978107379643e+45   -6.9538888324592045e+45   -1.5575281079968935e+44   -5.0818847981714368e+45   -2.8713307402307096e+45   -8.5862355654884426e+45   -2.0497827210566920e+45   -5.5283101990602294e+45   -2.8639264934336427e+45   -3.9170731842426031e+45   -5.0987197756715992e+45   -9.0062092292706817e+45   -3.1824472194056037e+45   -3.0940608577452397e+45   -4.7014707780435798e+45   -2.2560893382069886e+45   -2.4094040952376500e+45   -3.9977825195332229e+45   -3.8716871524988622e+45   -4.1113609673773835e+45   -4.6133300333706645e+45   -5.7546421176000047e+45   1.1226372533653722e+45   -7.0993228346737944e+45   -4.9293580339734876e+45   -1.9128382736257955e+45   -4.4308655476490705e+45   -3.2614776768119659e+45   1.5452085334931577e+45   -1.6080853497333271e+46   -7.7441693717001201e+45   -9.8123052605812246e+45   -2.4993824161447201e+45   -6.2918364279186264e+45   8.6277161687632077e+43   -6.8121621426124150e+45   -4.8111146595392325e+45   -2.4113260364609053e+45   -5.2546597175734069e+45   -4.2572021030683617e+45   -4.6890044263450204e+45   -7.2109817434466548e+45   -5.2498323345367687e+45   -6.9396169121308555e+44   -6.9601016020279664e+45   -2.9750689252406907e+45   -4.5323560774338796e+45   -6.9733049824050227e+45   -4.1298283535649212e+45   -1.3450134910517820e+45   -5.0941732857335915e+45   -7.2087691298664293e+45   -9.9288353829766480e+44   -2.0633037323454203e+45   -5.4289348220505525e+45   -2.8891699034000251e+45   -2.3135666929586200e+44   -1.2967896441156948e+45   -4.3290230913970122e+45   -3.6003599844707286e+45   -5.2939375699031430e+44   -2.3197715639760714e+45   -4.4144996875165635e+45   -8.0700878590986396e+45   -1.2861026446671396e+45   -2.6009603954393466e+45   -3.7501122736235185e+45   -5.2530112460437934e+45   -8.5133677887420194e+45   -3.1656872834836190e+45   -4.9260997719169583e+45   -1.6698353603263752e+45   -4.1176161218259190e+45   -4.0046381037115082e+45   -4.3097917157747894e+45   -5.0435457205703658e+45   -4.8282634798609538e+45   -8.8871918536448763e+45   -1.0432365857729304e+45   8.6076339929072984e+44   -8.2583424432898545e+45   -3.7428353339078094e+44   -3.3583247498268565e+45   -3.8584711263555669e+45   -2.6500491960839606e+45   -2.4692558778530073e+45   -8.8325788148640169e+44   -2.6636156235456652e+45   -2.0836612883439023e+45   -4.6511346600564289e+45   -7.9518442241423075e+45   -6.5223593783776920e+45   -3.3679345919355361e+45   -6.6876309787251882e+44   -2.9092844149891536e+45   -3.1856300861424146e+45   -2.0746492352289860e+45   -2.2373207383291250e+45   -3.4409726622069063e+45   -3.9708411484698950e+45   -7.1688053838706640e+45   -1.0942767317577679e+46   -2.0661205707280715e+45   -2.4306822121360999e+45   -1.0214075428676278e+46   -6.2570688651041674e+44   -5.9280193376045904e+45   -5.7224508685424432e+45   -1.7081299766730481e+45   -4.5126856445729830e+45   -2.3150615596301065e+45   -1.3835214529492687e+46   -4.2881877394030991e+45   -9.9805780804839117e+45   -2.2839062792439708e+45   -3.5721569878971175e+45   -4.7567973137484106e+45   -4.5043465811334309e+45   -1.3321932828458021e+45   -3.6919266913600900e+44   -2.1605974941900099e+45   -5.0045181092939939e+45   -1.0589467605004791e+46   -1.4322328377123317e+45   -5.9358169750693963e+45   -3.0348178717521886e+45   -2.8098111428409709e+45   -7.9528484205086924e+45   -8.3920359829078309e+45   -1.0164734790207120e+45   -2.4532331281138077e+46   -5.3968979672886613e+44   -6.1803686506662243e+45   -3.9121866518325186e+45   -1.2997817729311007e+45   -2.8828815154160259e+45   -3.6235910142469484e+45   -3.9619639347325752e+45   -5.2575318141012957e+45   -4.6044826680902059e+45   -3.0749353589390762e+45   -5.0354430391119036e+45   5.1351610870753801e+44   -8.8596583871168871e+45   -1.9655646768468593e+45   -8.3282211998872777e+45   -3.6673324756898426e+45   -4.5778598070137846e+45   -7.9818268262971316e+45   -2.1618901605656862e+45   -7.8516232884578461e+45   -3.7764925298514680e+45   -6.6641197681247949e+45   -3.7003382252562061e+45   -3.7669308378539380e+45   -1.0016418630796424e+45   -1.5312396458810308e+45   -4.6570144616837189e+45   -1.2934464071527181e+45   -3.4157581408475999e+45   -1.1793280290129381e+46   -4.0389577224595192e+45   -2.9644867996696032e+45   -5.1889426461830941e+45   -1.8075344836311654e+45   -2.3494677760191997e+45   -6.6615028836265650e+44   -1.7974344071072882e+45   -2.9764409666994930e+45   -1.0934024242120842e+46   -9.6572750343893873e+45   -5.5735083190706686e+45   -4.9166877301512051e+45   3.8404417688887333e+44   -3.0135705001558435e+45   -1.3678657537636242e+45   -5.0977079845945558e+45   -9.1374775367474569e+44   -4.0763742694503902e+45   -7.9190158429742047e+44   -7.7741870433922339e+45   -6.3425076482483993e+45   -5.1974325797312544e+45   -1.7547119518808074e+45   -2.3351897458887084e+45   -4.5515998312950140e+44   -4.9388040912315435e+45   -5.9049159278940333e+45   -4.1492976618186108e+45   -5.7693279735988075e+45   -3.2341633234288435e+45   -1.2989692470173621e+45   -8.6302040562184889e+45   -3.7115044575918789e+45   -5.4580525633337945e+45   5.8973774376842351e+44   -2.3734073738525900e+45   -5.2394338357800369e+45   -7.3086597049068760e+44   -9.5704113883011012e+45   -5.4289424568906525e+45   -7.4447412948590136e+45   -2.9326041731345260e+45   -2.3045119337911430e+45   -1.0114959229068424e+46   -1.8265037334463081e+45   -5.4962436168546625e+45   -9.0761405213751248e+45   -4.1860175886728747e+45   -5.9442292862124536e+45   -5.9602241719115046e+45   -7.7243577551017701e+44   -2.0464440322856600e+45   1.2430739044158260e+45   -3.1179425303774648e+45   8.4779428503586223e+43   -8.5240841700762877e+44   -2.2669394855499904e+45   -2.7783959952434041e+45   -6.8979778354157625e+45   -6.8384091942237610e+45   -4.7696474842627917e+45   -2.8448301968922426e+45   -1.7788547037529422e+45   -1.7763222182320213e+45   -9.4309370382464119e+44   -4.3775467823140697e+45   -6.3137551928730928e+45   -2.0927763577713865e+45   -7.9376355461765098e+45   -2.8540602107191441e+45   -8.1356091519939670e+45   -2.6436865145823202e+45   -1.4343528487784666e+45   6.2537359009508082e+44   -1.3354014322794952e+45   -1.4599395477344490e+45   -5.3005887926638997e+45   -3.7074743581605415e+45   -2.3298015033482038e+45   -1.6912517778163476e+45   -2.1351481793579244e+45   -2.8568614734697188e+45   9.5756404262819745e+44   -3.3257793440531674e+45   -1.9407691365501642e+45   -8.2315576767517571e+45   -2.8442124288399797e+45   -4.2154076187978084e+45   -3.5275230268718917e+45   -5.2997609928270140e+45   -1.8368201999770832e+45   -3.0625244170010098e+45   -6.6387729076584494e+45   -2.9057161610286392e+44   -4.0749657630814883e+45   -6.3518995495278375e+45   -7.6392242082669254e+45   -6.5251612314750486e+45   -3.2621082174587700e+44   -1.3208794999960607e+45   -6.6287394779363626e+44   -5.4142317575386669e+45   -3.0734246627546169e+45   -1.4344623686456811e+45   -3.9532835149455114e+45   -7.5626831143982636e+44   -5.8069313949018498e+45   -3.0634566695816342e+45   -1.6434834912228801e+45   -1.2448094188631915e+45   -4.4341590853717627e+45   -4.3352534009284797e+45   -3.4520970856359180e+45   3.7124146671023265e+44   -4.8419982987961125e+45   -5.3076501622638996e+45   5.1956160500978679e+43   -1.7572262161366544e+45   -2.2350910944958300e+45   -4.0056448889736806e+45   -3.9751437257807393e+45   -9.0154634791718762e+44   -4.6546651382533560e+45   -1.3059852931611291e+46   -6.8155426297933431e+45   -3.8484530605805075e+45   -4.3413801756371540e+45   -2.7071361894945240e+45   -1.4040247327009989e+45   -1.9144134020813248e+45   -8.4276821797092274e+45   -8.8030462762557888e+44   -3.1183211986621377e+45   -2.0886640590889155e+45   -2.6375664732256191e+45   -3.2155734291954737e+45   -6.3116765369023554e+45   -3.0927774507113591e+45   -3.8816407090978765e+45   -2.7814232357192560e+45   -3.6067169345271331e+45   -4.4224147891154412e+45   -2.8339765746731475e+45   -6.7711109951949102e+45   -7.1443970790635757e+45   -2.1605033602128841e+45   -3.7380311835722091e+45   -6.2685335592191479e+45   -2.6654437646868562e+45   -3.6814721337041734e+45   -3.7086262655778725e+45   -5.5489572673446619e+45   -5.1623853311585423e+45   3.7613821732661898e+44   -5.1474019667528833e+45   -3.5143616464588622e+45   -5.4376247940615206e+45   -6.4819760335465386e+45   -3.6740499507852738e+45   -5.6909040756795281e+45   -1.8148889340967792e+45   -1.5220337874134161e+45   -3.2575916480481230e+45   -4.7227163283363953e+45   -1.2773862316632953e+45   -2.4776910655284454e+45   -2.2138019355852045e+45   -2.1065626764243368e+45   -1.8113628911184281e+45   -4.9535855725634497e+45   -2.3603241012289806e+45   -1.4740732198225423e+45   -4.7290123112381827e+45   -2.3788105607460371e+45   -2.3679308527223067e+45   -2.6765747709792896e+45   2.4303944609321816e+45   -6.1420782302415192e+45   -6.9423779333311714e+45   -1.9005406722718697e+45   -2.9309066071513413e+45   -1.8306516408464783e+45   -1.1267565134841560e+45   -2.8452351911672254e+45   -1.9061906009892490e+45   -9.4202067828059068e+45   5.8739835077698261e+43   -3.8352016857226137e+45   -1.7354111705652648e+45   -4.1014626198436939e+45   -7.2336962782943867e+45   -8.6325209382420681e+45   -3.8924095850848903e+45   -8.1939371633068825e+45   -2.3234824814029784e+45   -6.4942469485743824e+45   -1.7848670576687354e+45   -3.4913440555187112e+45   -2.0848747715174557e+45   -2.8574588045305634e+45   -4.5540283833656232e+45   -2.3272096180658277e+45   -6.4071856480800799e+45   -3.0897708882508808e+45   -1.5084908890100622e+45   -1.2060281910116745e+45   -3.3663949149897306e+45   -1.0361917483416603e+45   -3.6121528453692487e+45   1.2763182365607625e+45   -4.3192528296902521e+45   -3.3074201781339336e+45   1.4129504867505812e+45   -4.6397324108913128e+45   -1.8622786771548369e+45   -2.9844390903769084e+45   -3.2761669855134714e+45   -5.4098321388148938e+45   -3.4667081930099655e+45   -2.5776337791519403e+45   1.0210408782794510e+45   -9.7405457581790764e+45   -4.8493431970933062e+45   -4.3394814563543580e+45   -4.2632293438362800e+45   -1.9713692001324776e+45   -7.9974530723168154e+44   -2.4494638825701035e+45   -3.8164129032996979e+45   -9.0881553773176076e+45   -4.0185030093951809e+45   -1.4185973565165933e+46   -3.8381197290083804e+45   -6.9750726134908493e+45   6.6243332632380195e+44   -3.6982636511335963e+45   -3.6862717530782628e+45   -7.0945111560564397e+44   -1.5329047463883173e+45   -5.1710660796573039e+45   -7.1639753246338566e+45   -1.0199164502146390e+45   -1.3635420715134500e+45   -2.2797312770784832e+45   -3.1044746117006818e+45   -5.5894778963210769e+45   -2.6704485800784212e+45   -8.7637109599053770e+45   -1.7785793896779873e+45   -2.1418330691408501e+45   -3.2755374179202233e+45   -9.0159266851698384e+44   8.6323814514341131e+44   -4.2259313136704142e+45   -3.2732293503053605e+45   -4.0064073862129911e+45   -2.2760770582323396e+45   -2.9916546047671750e+45   -2.8131924176031198e+44   -6.2975204183612403e+45   -4.0919022648980851e+44   -1.2148731869776429e+45   -2.6116670361123236e+45   1.5214731755141928e+43   -6.0112961874385277e+45   -5.4106503891766323e+45   -2.2697512223112713e+45   -6.6275112159740097e+45   -7.2471322784450323e+45   -4.6842439267757252e+45   -1.5191003228042400e+45   -3.8857729474923527e+45   -3.2550392262659491e+45   -4.0825561609149168e+45   -1.7758917558775700e+45   -7.2352438910490293e+45   -6.3506117804283974e+45   -5.0468306914169220e+45   -4.3376422319122645e+45   -2.5481966646321822e+44   -6.6193094824213788e+45   -3.6760980882787136e+45   -4.5152915772420776e+45   -3.9236766334526448e+45   -7.7916505511392712e+45   -2.2155607914285081e+45   -2.3964091474262789e+45   -7.5254826125380377e+44   6.6667930797562072e+44   -6.6188457453897135e+45   -4.0692563601998261e+45   -6.8343056209158480e+45   -1.3296359919112949e+46   -5.2505454643708303e+45   -3.3144948379107861e+45   -2.2831376624362109e+45   -1.0607157533164778e+45   -3.7434019045761698e+45   -6.9000928848067924e+45   -2.2685594818510186e+45   -4.6685160320883627e+45   -3.1493147388127540e+45   -3.6878290908644119e+45   -2.1289823032672364e+45   -7.9968988445281465e+45   -4.5633545038317367e+45   -4.5866998632777120e+45   -2.8468217616340567e+45   -4.0545552910663204e+45   -1.1671487969570069e+46   -4.6930941883866095e+45   -4.2154071873767483e+45   -2.9693815506581051e+45   -2.8126887930754235e+45   -3.0631064380913500e+45   -1.4194596430593951e+45   -2.2122795769567841e+45   -9.1563637559151673e+44   -1.5838019306467239e+45   -2.8820888544976568e+45   -6.2318829281201941e+45   4.8675145917202126e+44   4.9607400897174121e+45   -3.4924107137711553e+45   -6.5350902476034413e+44   -3.4878251161104650e+45   -2.7797319180424373e+45   -1.9906405368301994e+45   -5.1693279752620635e+45   -4.8300386568087817e+45   -8.4939360760382350e+45   -1.2252930854073161e+45   -2.7543872134289592e+45   -2.9315205281151261e+45   -1.0962306289715588e+44   7.4593672509052585e+44   -6.5234511496358173e+45   -5.9276271906914915e+44   -2.0644901287252844e+45   -6.1764408189650882e+45   -7.2999529214482130e+45   -5.9979302426085187e+45   -2.3537424129228284e+44   -1.0748126811564531e+46   -3.2987934969532134e+45   -8.1085149032230599e+45   -2.2205513725097147e+44   -1.0296045455898448e+45   -2.6891806173390134e+45   -2.6467412934536136e+45   -6.1243352803790772e+45   -3.5398273012174547e+45   -1.6758588994281110e+45   -2.1078772293767080e+45   -4.8301624700548205e+45   -1.0575540588290598e+45   -1.2531598544735195e+45   8.6161459474529356e+42   9.2078216192771354e+44   -4.9201059040145523e+44   -2.9838186308926995e+45   -5.2628052437805660e+45   -1.0068393936549732e+46   -2.0889822091970976e+45   -1.4638285547796789e+45   -1.3282412324803051e+45   -7.5673556887735425e+45   -4.6447210094044245e+45   2.5963048215369974e+45   -3.8630535057580424e+45   -1.6018263682439060e+45   -4.4757127984856521e+45   -5.0130627420363847e+45   -4.5353026537953469e+45   -4.4669639151873368e+45   -3.6440755782530214e+45   -6.0516432768126117e+45   -3.1460733740225898e+45   -3.8063582124590138e+45   7.7337156469944170e+44   -3.5534978173202258e+45   -3.1336538967944824e+45   -4.6061517856467397e+45   -7.2381488873802862e+45   -2.7410850994235800e+45   -2.3269224847318193e+45   -5.1129761831526255e+45   -2.6330503841421718e+45   -6.0765689956341347e+45   -3.4225875320523689e+45   -5.1990674954546153e+45   -2.9227529747316807e+43   -1.9620102355412822e+45   -2.7030648243125437e+45   -2.1690014405310301e+45   -1.9953486745993632e+45   -2.7428340077546473e+45   -3.3158696928487186e+45   -3.2460629057338578e+45   -5.1348372632172567e+45   -7.4917653943914186e+45   -2.5619726222196161e+44   -4.6459796711816751e+45   -2.0544523775410534e+45   -3.5503732239988831e+45   -4.6486697863751489e+45   -7.7331944271542671e+45   -2.0903548551029657e+45   -7.1207412714128090e+45   -2.4498618291848946e+45   -3.3408961470094497e+45   -1.0043833917464216e+45   2.6780321048688368e+42   -2.9649550841265520e+45   -3.3080345358575037e+45   -6.0385467287233405e+45   -6.4323486058983309e+44   -7.6614569384638190e+44   -1.4442023234847688e+45   -3.4976774270247890e+45   -5.3687268525989192e+45   -1.0728559218435504e+46   -9.2373692359921311e+44   -1.2386141736778853e+45   -3.8150491010760853e+45   -2.6080226097394495e+45   -6.7905519102504387e+45   -2.7175085868714967e+45   -4.5671873089152253e+45   -1.1962326086536046e+45   -8.4748781303799190e+45   -4.8994932028621372e+45   -3.8156014040842619e+45   -5.2625922455790504e+45   -6.2192665297064033e+45   -5.0896840067119003e+45   -2.0320330147468367e+45   -2.7820445376431239e+45   -2.4625838850944548e+45   -3.0062795052992780e+45   -3.4222919110023643e+45   -1.5748482271350660e+45   -2.6669665248717401e+45   -3.7811382551077979e+45   -4.0206485839835239e+45   -5.3554201998412978e+44   -4.2762168175342687e+45   -3.2545311978571111e+45   -6.2922057617648529e+45   -2.5476350498106849e+43   -1.6148000384719203e+45   -4.1789361968679742e+45   -8.1669148628665695e+44   -2.1251840202564056e+45   -4.7006464307749576e+44   -1.9427940003959172e+45   -2.4008776154056297e+45   -4.7194576382576134e+44   -1.1431677384336400e+45   -6.5710744012130719e+45   -3.2725795254070428e+45   -2.3908413771547632e+45   -2.9472608490593726e+45   -3.2559868894412127e+45   -4.1404778712445485e+45   -1.9600434441045519e+45   5.7217165641708421e+43   2.3805966436801801e+44   -2.1741874503594780e+45   -3.2809477016063742e+44   -1.7513031864404259e+45   1.5895481795999503e+44   -3.5804846087268523e+45   -3.1224700567064383e+45   -3.4666707930961327e+43   -2.0423768353397109e+45   -2.8276575970103463e+45   -1.5451839803937363e+45   -3.2078056232487210e+45   -5.4313875946913616e+45   -6.6056199603688219e+45   -2.1491630303873658e+45   -6.9587815219977737e+45   -4.0140747859943098e+45   -2.4350501546487139e+45   -6.2652454768941336e+45   -4.3260327892476148e+45   -5.0505239962570162e+44   -1.0667352186289174e+44   -2.2877181912528464e+45   -5.3639679255619288e+45   -3.2267399580843512e+45   -2.2116947952198669e+45   -3.0082342817079683e+44   -1.5094146241469097e+45   -3.5301291187396507e+45   -1.5078035626782267e+45   -3.4282225322773999e+44   1.1012943047721538e+45   -1.9816466943031769e+45   -3.1475801196531734e+45   -7.9926433172119649e+44   -5.8376018050677806e+44   -4.6945706185839974e+45   2.9560202579912982e+44   -3.3194945569546934e+45   -3.7393057787117100e+44   -3.7256696062219873e+45   -2.9624397409613313e+45   -2.5585221903721562e+45   -2.6642654729122742e+45   -5.3152903192002286e+44   -2.7169993379382539e+45   -8.5006685586871166e+44   2.2678172999933852e+43   3.9741653614895677e+44   8.3722531946507613e+44   -4.2833417272981387e+45   -2.2449938418213397e+45   -2.8562817701024448e+45   -7.6674636373662208e+44   1.6481615579751596e+45   -2.0708955106213356e+45   -7.3885041463137362e+45   -2.7676028329444493e+45   -3.2736820654427248e+45   -3.0403027009749256e+45   1.3932346577622671e+44   -6.3197076650938086e+44   9.6026621593401115e+44   -2.4108371916265704e+45   -2.3223999414927248e+45   -4.7942238020367608e+45   -4.9888737097158295e+45   -4.1710191339599071e+45   -5.7852380590001315e+45   -3.5982642314655302e+45   -4.0312482359427833e+45   -4.9062566218475586e+45   -6.8676138629879665e+45   -4.5710706196569590e+45   -2.3201456774227529e+45   -4.2488825639629616e+45   -5.6612256570457213e+45   -1.1705559696804904e+45   -3.5670973991626285e+45   -2.6964494291903661e+45   -3.8754069205044232e+45   -1.9727880292460187e+45   -7.3677708464145513e+43   -4.3821848491940780e+45   -8.9789606731844579e+45   -3.3695616637059072e+45   -1.0897548266735112e+45   -3.7142000026506833e+45   -4.5590905193169003e+42   -1.2657526372599105e+45   -6.6459203007132124e+44   6.0718781843202044e+44   -1.1623715828619089e+45   -4.7477409961672791e+44   -3.6187084093739139e+45   -4.3062923861036763e+45   -4.7153352573141589e+44   -2.4534732036991185e+45   -4.4697045479835479e+45   1.2274923385187374e+45   3.3390213092252162e+45   -4.6318760399589269e+45   2.8855019762972124e+45   -4.0659497105294210e+45   -5.0474523283556332e+45   -1.0535506761091919e+45   3.6086876416004835e+44   -5.9767569678312467e+45   -2.0928050369870553e+45   9.2432930131180747e+43   -4.2074021814254751e+45   -2.8193829270474037e+45   -4.5026761768921074e+44   -5.7524156955547280e+45   -3.0438025885111561e+45   -6.6396502585722925e+44   -1.8505132682870911e+45   -1.2681110629852274e+45   -2.7648624156961794e+45   -2.9542617408629875e+45   -1.9245905294827534e+45   -5.2024085911044600e+45   -1.0690077974914033e+45   -3.3122461548687528e+44   -4.434155981022074