<?xml version="1.0"?>
<VTKFile type="UnstructuredGrid"  version="0.1"  >
<UnstructuredGrid>
<Piece  NumberOfPoints="387" NumberOfCells="708">
<Points>
<DataArray  type="Float64"  NumberOfComponents="3"  format="ascii">0 3 0  0 -3 0  6 -3 0  6 3 0  3 -3 0  6 0 0  3 3 0  0 0 0  3 0 0  0 -1.5 0  1.5 -3 0  1.5 3 0  0 1.5 0  6 -1.5 0  4.5 -3 0  6 1.5 0  4.5 3 0  4.25 -1.25 0  1.75 1.25 0  2.25 -1.5 0  4.5 0.75 0  1.541666666666667 -0.2083333333333333 0  3.219827586206896 1.521551724137931 0  1.125 -1.875 0  4.875 1.875 0  0.8702651515151515 0.631628787878788 0  2.25 2.214285714285714 0  3.316176470588236 -1.904411764705882 0  5.214285714285714 -0.75 0  5.03125 -2.03125 0  0.96875 2.03125 0  4.041666666666667 -0.2083333333333333 0  0.8205128205128206 -0.9134615384615387 0  3.942582294752138 2.189194098250713 0  3.061487638533674 -0.968243819266837 0  2.192708333333333 0.4427083333333334 0  4.157850026972511 -2.182329047049442 0  2.331456616463011 -0.5285296485744057 0  3.654761904761905 0.5654761904761902 0  5.25 1.125 0  2.563673341677096 -2.280663329161452 0  5.126674107142857 0.1283482142857142 0  0.75 -3 0  0 -2.25 0  6 2.25 0  5.25 3 0  0.7680051888903191 -0.1384245958639337 0  1.617229471026718 -1.006949429867069 0  4.218940341429579 1.468686552856807 0  3.75 -3 0  2.25 -3 0  0.75 3 0  5.25 -3 0  6 -0.75 0  0 -0.75 0  0 0.75 0  2.25 3 0  6 -2.25 0  0 2.25 0  3.75 3 0  6 0.75 0  1.787573018358365 -2.279142327213878 0  3.195025188237337 2.273430909158844 0  2.528159645294386 1.151699106559287 0  1.041598427383826 1.322848427383826 0  1.520951704545454 0.4634232954545453 0  1.580357142857143 2.325892857142857 0  4.919642857142857 -1.361607142857143 0  4.54981623521892 -0.6483700862895494 0  2.99317863826574 0.6697091957925523 0  3.450169349029507 -0.4574865881858001 0  3.605016126014028 -1.323102984840902 0  2.745144658907412 1.882241931337371 0  0.4898065586600511 1.092777516238393 0  0.5 -1.875 0  1.217028489597945 -2.469323836800685 0  1.659912685567181 -1.604738056701542 0  5.4375 1.6875 0  5.34375 2.34375 0  4.52741779500503 2.384139265001677 0  3.375 -2.514804579549941 0  0.5446428571428571 -2.455357142857143 0  2.766554087216865 -1.745795909102064 0  4.525516559010988 0.1490283123570637 0  3.87554132162248 -0.8280516069565407 0  4.53622906132958 -1.76963146596888 0  0.4243951612903226 1.875 0  0.554851858345021 2.446861709948876 0  5.575604838709677 -1.875 0  5.445148141654979 -2.446861709948876 0  4.875 -2.575604838709677 0  1.440573466105381 1.721823466105381 0  2.193519495405082 1.631799415080963 0  5.472630128027442 -1.330813078900983 0  4.750126894286386 1.343813447143193 0  5.607142857142857 -0.375 0  2.625 2.607142857142857 0  0.3921763197810531 0.375 0  5.60901753622775 0.3750000000000001 0  1.125 2.613454943235572 0  3.701856738980915 1.163867513386733 0  3.736112850688509 1.696746876851408 0  3.519183195491339 0.06065128742606851 0  3.973620778217027 -1.693401606145563 0  0.8125 -1.444978632478633 0  1.256657745408029 -0.6381828923025001 0  0 -1.125 0  5.019997778514942 0.6475044429701156 0  4.125 3 0  1.285569332703024 0.8955310332120207 0  0 -0.375 0  0.4638922275641027 -0.5625 0  2.056635259780241 -0.07226025978024064 0  2.130475508371123 -1.000827820434028 0  2.677484372338113 -1.267299126394495 0  2.848680878891876 -0.4956836878192376 0  4.937901885089369 -0.3340245904575954 0  4.393563081308854 1.919544166973803 0  4.053859126323572 0.2813938488760716 0  1.181051704329518 0.1167440895674965 0  1.971354166666667 2.607142857142857 0  4.875 3 0  2.519350561152006 0.08093582719875507 0  3.139443301924015 -1.442524927271905 0  6 2.625 0  1.849169256239503 1.945480934753207 0  1.867196483071171 0.7892354369530077 0  1.192506522009051 -1.184888428863342 0  3.375 3 0  3.603234392481833 2.536866305538572 0  3.846752908916648 -2.537707634073423 0  2.014339897513945 -1.886932065281681 0  4.038392037966526 0.8363324773944992 0  4.421242701722609 -2.552534687860327 0  3.715389848650903 -2.108856956172843 0  2.985668138820625 1.127780908772207 0  0.4500794934449803 -1.173696061598557 0  3.366760888116476 0.8891914618875614 0  1.869163043700093 -0.6107175804171328 0  2.175114838273305 -2.53928723780967 0  3.014417665538299 -2.241523065744933 0  2.625 -3 0  2.819968145332426 -2.617202329573456 0  5.625 1.3125 0  5.563263538826679 0.814027077653358 0  5.625 3 0  2.550041671270923 0.7074928970804664 0  4.014583091741168 2.59891853892166 0  0.6440729668673318 1.499523832583132 0  5.219449799568244 -1.660557808485412 0  3.474012636702472 -0.9300738420779746 0  0.8125 -2.142857142857143 0  1.875 -3 0  4.945010515846405 2.554471797033147 0  2.611388969012422 -0.8478354915063726 0  3.223746055611014 0.3371683159691745 0  4.843939757110898 -0.9483610977948225 0  4.66556954816842 -2.220888354477256 0  4.125 -3 0  4.448108395110625 -0.2524000502731018 0  5.63671875 2.05078125 0  2.822484133964224 1.491327727709286 0  3.378213092764193 1.903125093887009 0  5.607142857142858 -0.9231200445788541 0  2.12639693023183 1.100450516019641 0  5.625 -3 0  0.375 3 0  0 2.625 0  6 -2.625 0  0.3931307155906299 -0.01856779822591927 0  0.7651723094668359 0.253768144801553 0  0.8549199714190221 -0.5218333744252657 0  1.421989550604507 -2.133299471886336 0  1.582611957351803 -2.615166692128227 0  4.420331038793115 1.133144382396504 0  0.375 -3 0  0 -2.625 0  5.078156723571596 1.54697017071479 0  1.877250715260938 -1.288801575378032 0  2.409169073010687 -1.916147168931784 0  1.146151077069952 -0.268000681695328 0  1.726784828652036 0.1335728643263411 0  2.745628549924675 0.3838821021397905 0  3.011490900297165 2.613625569196862 0  5.62463365164608 -4.137655439684362e-05 0  1.875 3 0  1.125 3 0  6 0.375 0  2.625 3 0  6 -1.125 0  6 -0.375 0  4.875 -3 0  6 -1.875 0  3.375 -3 0  1.125 -3 0  0 -1.875 0  0 0.375 0  0 1.125 0  0 1.875 0  6 1.125 0  6 1.875 0  4.813017731148975 0.9677363687196439 0  2.807371623148303 2.264962208227767 0  0.3692953377255688 0.7436406761680247 0  5.615625 2.615625 0  0.9395725521479794 0.9812935874921043 0  1.390920759130215 1.238984550166515 0  0.9588795022085095 1.672288500195331 0  0.87712392565124 -2.641031728267331 0  0.3665732993114588 -1.532068934251388 0  1.841944504733106 1.591700334213738 0  4.832970185136452 0.3385359233091246 0  4.169083540479082 -0.5746148619765254 0  5.281697083409333 -0.2046640461936881 0  4.072845380968044 1.784516523483641 0  1.293029195762321 -1.543079049035419 0  4.878733886054284 -1.720697370582964 0  3.609167475697567 -1.687579152754035 0  4.836981942878573 2.222259978217028 0  4.204938267037067 -0.9128589669335569 0  5.183079748175263 -1.111742407358677 0  1.22880920402559 2.273525645756405 0  1.469404041858679 2.654509729682302 0  4.566761045622856 -1.414165869120005 0  4.531680518427715 1.606803989975667 0  1.918929241273175 2.27471131819245 0  3.526908551984126 2.207147627530056 0  1.85683899811842 0.4533569963423589 0  1.173935704088662 0.4636872214645547 0  2.116602160898525 -2.207718541460878 0  4.51821874648995 -1.042568353750147 0  2.721551512787618 -0.1859357475290837 0  5.294921875 2.001953125 0  5.288671874999999 2.670703125 0  2.199940744527116 0.7756512213396931 0  4.090519467638897 1.163401080812838 0  2.298177083333333 2.670581371753247 0  2.484362362207526 -2.687319997637033 0  3.300530569898859 1.207053005217563 0  3.936078051808127 -1.362164062673065 0  5.341218841330105 0.5689885832563615 0  4.226314635599414 0.5638853401248238 0  2.524510956818563 1.635483567726497 0  0.3219546452225031 1.389066019009203 0  3.139061555368706 -0.3133905221155423 0  3.145569907612562 -0.6461828528638952 0  3.701427442033566 -0.2272880199383185 0  1.686782510365738 -1.934662341426927 0  2.427696494631844 1.944064773844184 0  3.901817839425732 1.422433381251312 0  2.356489883772755 -0.2025512972825912 0  4.820757576351118 -0.01647699434507374 0  3.064415631228375 1.809719380809516 0  4.643002705009462 2.69782572459795 0  4.31624250429496 2.728112685900672 0  1.520100694408069 -1.314302747998057 0  3.754559308601717 -0.5375020107416889 0  0.25 -2.0625 0  0.8125 -1.826636904761905 0  4.861738621091127 -0.6367294570749906 0  1.545149590740081 2.015832101819233 0  3.857113324620078 0.04127675193819436 0  0.2479605082936806 -0.9375 0  4.21293081604216 2.352874368135467 0  3.123697687162562 -2.708090473740421 0  3.415275466010259 -2.202892416689829 0  3.601103065320932 -2.727566580522146 0  1.558629964945672 -0.5289921609136927 0  3.324859026263307 -1.198136798699183 0  2.424350759683917 -1.092246517929194 0  2.746461744851735 0.9398108087856579 0  0.8882026075771248 2.364936378889839 0  0.8066140242673685 2.679750706449505 0  4.504454978490482 0.4491616076730165 0  4.26881784709759 -0.009649566552704852 0  1.3125 -2.75919801263958 0  1.120577805361368 -2.179971784090952 0  3.734048623985226 0.8602850349907256 0  3.527828882622877 1.432983527791925 0  1.959527908877504 -1.578124930685265 0  0.7602573574724077 1.220872343399509 0  0.6691217533356228 0.8531987603309893 0  1.877213035764122 -2.564340152892596 0  3.32172153715047 2.685939810104955 0  4.285565286275464 -1.569057178671076 0  4.227521511146333 -1.876903861267543 0  5.34375 1.40625 0  5.71875 1.59375 0  1.56245959534423 0.766197796710638 0  0.2458241530773257 2.4375 0  0.2794123857609179 2.138568368155198 0  5.754175846922674 -2.4375 0  5.720587614239082 -2.138568368155198 0  0.6472458227887359 2.124973059628837 0  5.124241021325378 -2.352544055105642 0  5.189172233440652 -2.675873509996353 0  5.364643151640443 -2.12768524739804 0  2.298896485720138 1.348573610321417 0  0.6008689899200503 -2.745193425346304 0  0.307092513690391 -2.651812055231556 0  0.2683745826107009 -2.363146293324415 0  0.5223214285714285 -2.165178571428571 0  0.3925308914031174 2.699891746740618 0  5.607469108596883 -2.699891746740618 0  2.138365140930822 1.917102089073091 0  1.25507379660067 1.953406658386351 0  4.135759889512124 -2.476847355718572 0  0.5330865684534913 -0.8980875812659357 0  2.548249345531056 -1.538893887888457 0  2.67686064875775
[...]
<CellData  Scalars="f_26-2"> 
<DataArray  type="Float64"  Name="f_26-2"  format="ascii">7.4767818327571227e+53   4.7874688098598955e+54   4.3682260000833160e+54   1.0530416488447641e+55   2.2986234680897839e+54   3.6288387874289785e+54   -1.7949850651675253e+54   1.2335153262292500e+54   -4.6263819678290932e+52   1.1077089044606865e+53   1.9236341572507346e+54   -4.0780331449312602e+54   -1.5972661000155620e+54   -3.6998196719805632e+54   -2.7308468407501353e+52   -9.3322738349228202e+53   -3.3391697885913180e+54   4.8164204682703363e+53   -7.6410542759144529e+53   -2.3284071132891595e+53   2.9450658073811411e+53   -1.2981927080791670e+54   -1.1263033771203999e+54   3.6629065818449265e+53   9.3342177582339697e+53   -3.7169695274947769e+53   5.9786047929290780e+54   8.0898434376747866e+53   1.0454890161834725e+54   -1.1749183621931333e+53   3.4726442947332197e+53   -2.0168279552225900e+54   -4.9374024943745433e+51   -3.7092760283146071e+54   2.7464211409877128e+54   2.5896806403504262e+54   -8.0267817361628228e+52   2.2920659627533431e+53   -2.9612968988613753e+54   6.9528344257648011e+53   1.3544353113974497e+54   -6.8023338052776824e+52   -1.9634321915165345e+54   -2.1203878840222348e+54   -6.4145384697557255e+54   -2.9068587221185078e+54   -2.5673266011458561e+54   -8.0771140563364591e+55   4.4276905067874341e+54   -3.6493817998645834e+54   3.8622069387370829e+54   -5.9520413047139600e+54   3.4653835109797467e+54   6.8606242972729391e+53   2.8500880373769359e+54   2.5167075985823915e+54   -4.5595130051439426e+54   -2.0681569583361927e+54   -1.1805758216013263e+53   -1.4188633621919035e+53   2.0631892528531602e+53   3.2568864719543330e+53   -1.9978947661563746e+53   -6.9942133189023033e+53   1.3802186928627883e+55   -2.5622199261069790e+55   1.8405587345996708e+53   -1.0352462683265543e+55   -5.7761045838269919e+53   1.5086388583962017e+54   -7.2452746300042771e+53   -2.8504579512145433e+54   9.5103735781490235e+53   1.1191069724200877e+54   -5.1279989475443719e+53   -1.4698533354213590e+54   3.7028277019631952e+54   2.2103692763285702e+53   -1.2322300486114138e+54   -2.4792953541942414e+52   -2.4976672736336524e+53   -1.4060875623906414e+53   -2.7405151895352186e+53   5.8330000840495141e+53   4.9758758625757703e+53   9.5668222176933710e+53   -3.6785730839433659e+53   7.8186084845593672e+52   -5.1520335407919972e+53   -9.5644988457332952e+53   2.4127930111060686e+53   -1.8447900924792815e+54   -6.9957042297892481e+53   1.5871095530420530e+53   4.6281414795261075e+53   3.9382462967070308e+53   -7.8813152829043363e+53   -1.1241498490588808e+54   -6.1756793402102651e+55   2.7372288043239739e+54   2.5102179420620895e+54   7.9435975875620606e+54   2.7848036707337116e+54   3.7269384226411660e+54   -1.1105033517946374e+54   -5.6206887984504598e+54   9.7460825310313151e+55   -1.5172626874908559e+54   -2.3710521229702331e+54   1.0675301730332059e+54   1.7129637311113855e+54   -1.7230844199747795e+54   -1.4490655845318042e+54   -4.6712388790024066e+53   -3.5232269559972840e+53   1.0838432949528481e+53   6.8589060325430252e+52   -9.0386473354215299e+53   -2.1724689682038926e+53   1.8559561786981072e+53   7.7666170107489244e+53   -7.5393888597898958e+52   -1.1442678313609681e+54   1.8888785679890999e+53   5.3360121356106604e+52   -7.8062580367145312e+52   -1.5556440683724133e+53   1.6087009433401736e+55   -2.1672308531145261e+52   -2.7094994249582607e+54   -5.1835367025958099e+54   1.2672975139295535e+54   1.0083356695526423e+55   -6.9889944146970619e+53   -9.9984753043395578e+53   -1.2192539880360089e+54   2.2420083012711048e+55   7.1105047653458798e+54   -1.2031387060410212e+54   -1.9880690133730569e+54   -1.6853221689943985e+54   -1.9217247545849507e+54   -1.3579409202467846e+54   -5.1945198280149158e+53   1.6702534322774931e+53   -3.6184035474379541e+52   4.8932265769953798e+54   2.3682925133540433e+54   6.2857596889981858e+52   2.3959833823313318e+54   -2.4998755275113555e+54   -6.5274245035852659e+54   -1.4763714361865198e+54   -2.3872169462711140e+54   4.7637927405880217e+52   -1.8366394955650540e+53   6.8875186819068747e+53   7.9928304431394718e+52   -3.0709316864368793e+55   -4.6780407247634903e+54   -4.5297046974193194e+55   1.5785539943238383e+54   8.4277665832815043e+53   1.1676372375200788e+54   1.2880155244232394e+54   1.0831593575711682e+54   9.6072994897745665e+53   1.6359760704587537e+54   3.6613795924786421e+53   1.9323653623002727e+53   -9.5017315532100931e+53   -1.2098934075843556e+54   -5.7002626273454906e+54   -6.0418834856895667e+54   -1.1632941713078877e+54   -6.3426209315817648e+53   1.3943342343336588e+54   2.2939009583366796e+54   1.5874846348988393e+54   7.8846609346036035e+54   4.5480145037514479e+55   7.6956606523369243e+54   1.2113374781153347e+53   -2.1277356615629667e+53   2.6462159368404954e+53   7.5866691357498875e+53   1.6454579155250569e+54   -4.4256048494639965e+54   -3.3543737466911563e+53   -8.6377636939134510e+52   -5.1146423511517920e+53   -4.7964288728929611e+52   2.7804285720849887e+54   3.2673422197813246e+54   1.9644619760528301e+54   2.5192867335021763e+54   3.2514234328864960e+55   5.6327366768135185e+54   2.2766109088988571e+53   2.0291356822069607e+54   2.1445071633195662e+54   -1.9553132084672608e+54   -2.3123416380831492e+54   -2.5376904548254450e+54   -1.4339046099134208e+54   1.2719891047620535e+53   2.9553868146467364e+53   -1.0144306157765821e+54   -6.9601602019124841e+53   1.2199086489180068e+54   2.5736117808442553e+54   -9.2214533151315973e+53   -8.9181265702498476e+53   1.1448839214829380e+54   1.5621252083858128e+54   -5.7689923266331333e+53   9.9692199620368902e+53   7.4428479042478649e+53   -2.7993899584629134e+54   -1.8014505685298616e+54   -1.4359299833908343e+55   -2.2786947805437619e+55   5.1813070935331543e+55   4.1699580060284999e+55   -5.2360574660159042e+53   6.6846594935959245e+55   6.7914490298410305e+55   -6.9902944239570905e+52   -3.0668483698302135e+53   6.0730311888806725e+55   2.9580030577456255e+55   -8.7377481525041246e+53   2.3035201069479800e+53   1.3713891352436228e+52   1.2245807475652438e+53   5.4653128146423550e+53   5.9906708047889309e+53   9.2242872044037900e+54   -1.4287074468611150e+54   -3.5164970305040567e+55   -6.4596228043033455e+55   -7.5633018368484124e+54   -8.3547177558736523e+54   1.9752717078947947e+54   1.5149749484894047e+54   -7.0309029344244074e+53   6.6933333816416519e+52   -6.9054010303148767e+52   -4.3485142706268040e+53   -9.4256558226536858e+52   3.2668006907280972e+52   -1.0317459068840999e+55   -1.0633118869107147e+54   -1.0522650490128465e+54   -4.1159962640052219e+53   5.5588272769494841e+55   -2.5069289485776760e+53   -7.2058914262856342e+53   -8.5131677098720368e+53   -1.3475834510941348e+54   6.0867213363476482e+53   -7.9270555332098987e+53   -3.8463500867508886e+53   1.3230309289685007e+53   -1.7151378544575184e+54   -4.1400262523740091e+54   -7.0732712765851502e+53   3.0255928119360472e+54   -6.2069041706503032e+53   -1.0057848229714071e+54   -1.2716942417035028e+54   2.9108860494108757e+53   -1.6183626217891139e+55   -5.1346036801436634e+53   8.9880625066995418e+53   7.5216431539417223e+53   -5.4098163401969056e+54   1.5850194112445528e+54   4.5082826448703209e+54   6.2222772435270291e+54   -1.6493650746380957e+55   -1.2157047643267986e+54   -2.5949156799261040e+54   -2.5158148772571074e+54   -1.4644690701798696e+56   -6.3906224383221736e+55   -1.4245085378312635e+56   -8.4276574617860172e+54   -2.0881965256980286e+54   -7.5954484359410973e+54   3.1663110435871216e+54   4.3332366939805620e+54   1.1748889444926197e+54   9.2333912404100945e+53   1.8116030481275258e+54   8.8507085254319912e+53   8.9411467785279093e+53   1.1670769689173885e+54   -1.5469367878142083e+53   -3.6217669964891547e+53   2.4870207403007355e+55   1.1243228767983699e+55   2.5176617508899198e+53   3.0981288691579530e+55   1.9863168862040288e+54   1.2662830321424559e+55   2.2757273686996231e+54   3.0962049298494351e+54   1.5814295659354505e+55   4.2404395307219947e+55   1.2593904714066161e+54   2.4408361438403549e+55   2.4212224946814509e+54   6.3607813041520278e+54   1.2590487153236412e+55   1.0879015207389535e+55   -2.8880252849863652e+54   -1.9575757959182531e+55   1.0930131043907340e+54   1.8742579132203114e+54   -2.9073589614030927e+53   -1.3011909419956714e+55   -6.3261668345198760e+54   -1.1923697369236984e+56   -2.4662835136518452e+55   -2.8674517361036001e+55   -2.7509960070853111e+55   -3.5514534416715087e+54   -7.0474726670300578e+53   -7.2160167516948405e+54   -1.3458722525938758e+54   -2.3374169554987901e+54   2.3160199735772794e+55   5.4815099502572393e+55   5.3449760625611131e+55   2.6775229310341451e+55   -3.5300068516918250e+54   -2.9688763867442106e+54   -5.9776425378584561e+53   -5.4032000921004572e+53   -1.9844821448722296e+55   -9.2855102370069792e+54   7.9698692730601477e+55   3.9631434476277399e+55   4.9937424380243163e+53   1.9333659642415315e+53   6.0154431710049319e+52   9.2122736318291587e+52   1.4850785600670339e+53   1.2500103950167741e+53   -6.7386732983658905e+55   -3.1415504893606785e+55   -4.0640689352697205e+55   -1.9741704637016126e+55   -2.0690506134691754e+53   -2.5823241729413779e+53   -1.7018816800916618e+54   -1.2049895193940049e+54   -6.6798268704650395e+53   -7.8884477444023206e+53   1.0713956226237113e+54   -6.5855929172084368e+53   -1.9159937816933982e+54   -3.2757870054621459e+54   5.0768788563407179e+54   6.7603882318314677e+54   -1.4302983178109544e+53   3.7428145967164567e+52   6.3539867968548628e+53   7.0780505139471512e+53   -6.5602563871205655e+54   -7.0441092047803502e+54   -3.4902572393216306e+53   1.3727797780022821e+53   -8.0081509617434040e+53   -4.8671222961507192e+53   1.8036962891148001e+53   -2.7201117836416803e+53   1.6501087878777751e+55   6.2908014326983766e+54   -1.6281828767717400e+53   -2.0958845180173553e+53   -3.8989115915503499e+54   -4.1333164802313218e+54   -4.6470074163510086e+52   4.7198651803850072e+53   -1.6370743978228337e+54   -7.3636286535044385e+53   7.3278907649182797e+53   5.2602121304740829e+53   2.3645427056815897e+53   5.1077143943181099e+53   2.3727413484623898e+54   -1.6984578366376048e+55   -1.9566886636270990e+53   -4.8024856974050892e+53   6.3886699378689115e+53   3.6415883850801081e+53   -6.4647036853682059e+54   -5.6485140493309422e+54   3.6853645342537328e+55   7.4387579305710803e+55   2.7964203615501201e+53   5.0469916471978773e+52   -2.9665270794995731e+54   -2.3570837808803881e+54   8.0909610858397077e+54   1.4261160561612756e+55   -3.8434385619735885e+55   -2.8728502477558564e+55   -1.4451560968524706e+54   -1.7117851910629600e+54   2.8511377668111867e+53   4.6587014280186876e+53   -1.4071928405104046e+54   -5.8659695016893450e+53   -1.8919610304883763e+54   -2.0865278839136741e+54   -1.9769953285569505e+53   -4.2605073826446193e+53   -1.3018726139687735e+55   -2.8898234943662018e+54   -2.3374496656743074e+53   -3.0668476453032864e+51   3.7028773293484428e+53   2.2886682473969064e+53   -5.0183891561839691e+53   -4.8350821415237082e+53   3.2381563222571077e+54   3.2954160102133934e+54   -4.7245437409111509e+53   -1.1393256886815474e+53   -2.6699251364460495e+54   -2.1791368848246818e+54   6.6893127440338507e+53   9.9647146092021248e+53   -1.4556312939539238e+54   -1.5275692185809563e+54   -9.1470204368464683e+53   -1.0473465665338643e+54   2.6742021293083365e+54   3.9247284374194160e+54   5.2395713108661860e+55   2.2388617678140290e+55   3.6583145616308836e+54   3.4180626704278296e+54   8.8688816520705784e+52   -1.3759397764441914e+52   -5.3038338720084768e+54   -2.0000849406857065e+54   9.0317317867864010e+54   8.8607649540772000e+54   -8.0429400831832946e+53   -9.6998322998650611e+53   1.9869034148944133e+53   1.9074262632675229e+53   -1.1673794688827005e+54   -8.4941196437365518e+53   -3.8450948221046706e+54   -1.7140635557325198e+55   -4.1440885446821489e+54   -4.7144704770122012e+54   -2.1873092931652743e+55   -3.5686906534308156e+54   5.7475159755782394e+53   -3.3682009383746106e+53   -1.0409495052416203e+55   -1.9602471154233474e+55   1.8062124299322385e+54   2.0460983401182242e+54   1.0278547978847885e+54   7.6377506498565859e+53   2.6669686713370542e+54   1.8695372653122177e+54   -7.2460525095117425e+53   -4.4779670096384323e+53   4.5071634304397846e+53   1.1325418733062283e+53   3.1134116000748898e+53   -3.1936902880880664e+53   -1.8153018743149508e+54   -2.1609479963719297e+54   -1.1132974179438741e+54   -1.1643107375756836e+54   -2.6846339119250560e+55   -4.9050118937668439e+54   6.5695773446473711e+54   7.6557107791859177e+54   -1.5632965139763460e+54   -1.4387283976673571e+54   -1.4119374337792883e+54   -1.6266426524242878e+54   2.9816706371809371e+54   3.3862397367321871e+54   3.0532874450273027e+53   2.3804302390829339e+53   1.8000407866654403e+53   -1.1832295885528500e+53   -7.9494052573135748e+53   5.0623482487202242e+53   4.3148890832368216e+55   1.8898609478986748e+55   7.1898472242456979e+52   -5.9294028269877317e+52   -5.6501981011473887e+52   4.2346897443521422e+52   -4.7734283284839288e+54   -4.0025758473649292e+54   2.6304123269931331e+55   4.8545757637629586e+54   4.5051324505354304e+53   5.7295837847419656e+53   -4.4234581120751152e+53   -6.8694767464842847e+53   -5.1224249858263410e+54   -3.2318795836194515e+54   2.1161107544149481e+53   8.2531149509402122e+53   4.2744700031584689e+54   2.9061700482921211e+54   9.4056357210414331e+52   9.1032920559423535e+52   8.1987083915110528e+53   4.2642252267220399e+53   -2.4330536041977857e+53   3.7828245735666285e+53   7.4756668035754919e+53   1.2541041075135552e+54   -6.8974100186951217e+53   -5.5569513200057919e+53   -4.5912991685791144e+55   -2.0339332344541077e+54   -1.1295055730850237e+56   -6.2547234035808939e+55   -5.3089796332758380e+54   -4.7724130848435018e+55   1.1280478895910192e+55   8.7906038282789312e+54   1.0544267398271026e+54   6.7578814955231486e+53   -1.6901319314298258e+54   -2.5681316387493162e+54   -2.1021647576195744e+53   -2.6145265565646576e+53   9.9403259857103495e+52   1.1985880678243213e+53   -3.0790552012275809e+53   6.6364937968094426e+52   2.4236079904409176e+54   1.2794955365839086e+54   1.9745751574179108e+54   1.6655490052679218e+54   1.3125909028554557e+54   1.3679741048514756e+54   9.6332463417325654e+53   1.1496490283824212e+54   -4.6175956562815311e+53   1.0430627656406569e+53   -1.6201535919214043e+54   -1.4093447239163108e+54   -1.1459409785737096e+54   -1.2741643603648970e+54   1.0148198161492437e+54   1.1201496490906701e+54   -1.3794243780614246e+53   -1.4745598012931095e+52   3.5119664726564467e+54   8.2884748440902150e+54   -4.1773253131378593e+54   -1.1553978844953709e+55   -1.2553324082325462e+55   -4.0766178388055307e+54   9.1094124070037965e+54   1.9861268218930593e+54   1.4234495193998777e+54   3.5509840948466916e+55   4.8712799613985018e+54   5.8491848300927156e+54   1.2629766513561238e+53   7.7579837481621738e+52   -1.1468107898771849e+53   -2.7225869896780773e+52   -2.2667975155426649e+53   -2.9511956558541125e+52   -2.9199151474093910e+54   -2.7016040049979680e+54   4.6516588991567080e+53   7.3540624598533726e+52   1.9618891449412122e+53   3.3701824130573444e+53   -9.2200045054573146e+53   -7.5584845764444742e+53   2.4528065182101813e+54   1.1418267733995505e+54   1.0553132711672305e+52   1.1340352965974194e+53   2.8904609340070742e+53   3.3228104808218189e+53   -2.4102228373351959e+54   -2.7061170874226747e+54   2.7461663507345876e+54   2.8209227572016540e+54   -1.0854063825194980e+53   3.6688236927995583e+52   -1.6930004974938133e+55   -6.7452124978696236e+54   3.2031079191023722e+54   3.1381848872720637e+54   4.3574724394506404e+53   7.6316360368553494e+53   2.0824742170983407e+55   1.0767717409412361e+55   -8.7098962416402198e+54   -2.6122807204396909e+55   -1.3375909696798979e+54   -1.2041359393124922e+54   1.2978514780787752e+54   1.5629390534703048e+54   -5.4063350175430998e+54   -6.2287595245660443e+54   -4.6084204943769591e+54   -4.7466212499867146e+54   -3.0241737987639564e+52   -1.2788900807447081e+53   5.3669711473168206e+54   1.1483847838408850e+55   -3.3360358279158406e+53   1.4732838170869482e+53   -1.2832222236953524e+55   -4.1428052865210710e+54   -6.0355601481770089e+52   5.8109765106153905e+53   5.7285311315134794e+54   3.0268342635560397e+54   1.5655642354146081e+54   1.5653617621580611e+54   -9.5157367008241492e+54   -1.8600376387496271e+55   -5.6245638740208725e+54   -5.9627534751563074e+54   -7.5660187771102761e+54   -2.3319832849343778e+54   7.9899934525687541e+54   2.4960969677113070e+55   -2.5428772425139315e+53   -4.1575422826233515e+53   1.8631872999011328e+54   7.7347859906617934e+54   3.9050213725420037e+54   3.5053290115374827e+54   6.1828049009305812e+54   5.8938504427369666e+54   6.8989242259583277e+54   7.7999982720766606e+54   5.9773944476633103e+54   1.8075883145623739e+55   -3.0498517689302069e+54   -7.7400691217867338e+54   -1.3414093918756790e+55   -3.0770655572119051e+55   7.5330090775152564e+54   4.5889176518602393e+54   1.4869423945443428e+55   5.9329140205910609e+54   2.4118228995260841e+56   2.3941467676635580e+56   -1.9833884611413256e+54   -2.0224330837775107e+54   -1.8735082461564597e+54   -1.5587953393943405e+54   1.1272950295364276e+54   1.0677105367312385e+54   3.4992520447381852e+55   9.5717151234922279e+54   -4.6636173632076119e+54   -3.7764392463551747e+54   -4.0229446167400122e+52   -1.0621273071352402e+53   -8.4173781312699216e+53   6.0145004687722947e+52   -1.1245695917581188e+53   -3.4971088002017046e+53   -1.4595136976431062e+55   -5.9273761601672282e+54   1.1329212469935887e+55   8.5450818421681040e+54   -8.3094706968968952e+54   -7.9368486744322088e+54   7.1442175342252289e+53   5.1485001329867078e+53   1.1108797285220836e+54   8.8208166832055676e+53   4.5680886070666123e+52   1.1081331245997675e+53   6.4944446614491131e+53   5.3346037443101330e+53   2.9245291839815664e+54   3.1257706734873771e+54   2.3348734578667839e+54   2.4977204796585930e+54   2.2970446287164178e+54   2.1924192801608850e+54   1.7970434877544233e+54   2.0776175771131877e+54   -3.4329396756917059e+53   -3.2653106352038909e+53   -4.1572790039596970e+53   3.9655398944580368e+52   </DataArray> 
</CellData> 
</Piece>
</UnstructuredGrid>
</VTKFile>