<?xml version="1.0"?>
<VTKFile type="UnstructuredGrid"  version="0.1"  >
<UnstructuredGrid>
<Piece  NumberOfPoints="387" NumberOfCells="708">
<Points>
<DataArray  type="Float64"  NumberOfComponents="3"  format="ascii">0 3 0  0 -3 0  6 -3 0  6 3 0  3 -3 0  6 0 0  3 3 0  0 0 0  3 0 0  0 -1.5 0  1.5 -3 0  1.5 3 0  0 1.5 0  6 -1.5 0  4.5 -3 0  6 1.5 0  4.5 3 0  4.25 -1.25 0  1.75 1.25 0  2.25 -1.5 0  4.5 0.75 0  1.541666666666667 -0.2083333333333333 0  3.219827586206896 1.521551724137931 0  1.125 -1.875 0  4.875 1.875 0  0.8702651515151515 0.631628787878788 0  2.25 2.214285714285714 0  3.316176470588236 -1.904411764705882 0  5.214285714285714 -0.75 0  5.03125 -2.03125 0  0.96875 2.03125 0  4.041666666666667 -0.2083333333333333 0  0.8205128205128206 -0.9134615384615387 0  3.942582294752138 2.189194098250713 0  3.061487638533674 -0.968243819266837 0  2.192708333333333 0.4427083333333334 0  4.157850026972511 -2.182329047049442 0  2.331456616463011 -0.5285296485744057 0  3.654761904761905 0.5654761904761902 0  5.25 1.125 0  2.563673341677096 -2.280663329161452 0  5.126674107142857 0.1283482142857142 0  0.75 -3 0  0 -2.25 0  6 2.25 0  5.25 3 0  0.7680051888903191 -0.1384245958639337 0  1.617229471026718 -1.006949429867069 0  4.218940341429579 1.468686552856807 0  3.75 -3 0  2.25 -3 0  0.75 3 0  5.25 -3 0  6 -0.75 0  0 -0.75 0  0 0.75 0  2.25 3 0  6 -2.25 0  0 2.25 0  3.75 3 0  6 0.75 0  1.787573018358365 -2.279142327213878 0  3.195025188237337 2.273430909158844 0  2.528159645294386 1.151699106559287 0  1.041598427383826 1.322848427383826 0  1.520951704545454 0.4634232954545453 0  1.580357142857143 2.325892857142857 0  4.919642857142857 -1.361607142857143 0  4.54981623521892 -0.6483700862895494 0  2.99317863826574 0.6697091957925523 0  3.450169349029507 -0.4574865881858001 0  3.605016126014028 -1.323102984840902 0  2.745144658907412 1.882241931337371 0  0.4898065586600511 1.092777516238393 0  0.5 -1.875 0  1.217028489597945 -2.469323836800685 0  1.659912685567181 -1.604738056701542 0  5.4375 1.6875 0  5.34375 2.34375 0  4.52741779500503 2.384139265001677 0  3.375 -2.514804579549941 0  0.5446428571428571 -2.455357142857143 0  2.766554087216865 -1.745795909102064 0  4.525516559010988 0.1490283123570637 0  3.87554132162248 -0.8280516069565407 0  4.53622906132958 -1.76963146596888 0  0.4243951612903226 1.875 0  0.554851858345021 2.446861709948876 0  5.575604838709677 -1.875 0  5.445148141654979 -2.446861709948876 0  4.875 -2.575604838709677 0  1.440573466105381 1.721823466105381 0  2.193519495405082 1.631799415080963 0  5.472630128027442 -1.330813078900983 0  4.750126894286386 1.343813447143193 0  5.607142857142857 -0.375 0  2.625 2.607142857142857 0  0.3921763197810531 0.375 0  5.60901753622775 0.3750000000000001 0  1.125 2.613454943235572 0  3.701856738980915 1.163867513386733 0  3.736112850688509 1.696746876851408 0  3.519183195491339 0.06065128742606851 0  3.973620778217027 -1.693401606145563 0  0.8125 -1.444978632478633 0  1.256657745408029 -0.6381828923025001 0  0 -1.125 0  5.019997778514942 0.6475044429701156 0  4.125 3 0  1.285569332703024 0.8955310332120207 0  0 -0.375 0  0.4638922275641027 -0.5625 0  2.056635259780241 -0.07226025978024064 0  2.130475508371123 -1.000827820434028 0  2.677484372338113 -1.267299126394495 0  2.848680878891876 -0.4956836878192376 0  4.937901885089369 -0.3340245904575954 0  4.393563081308854 1.919544166973803 0  4.053859126323572 0.2813938488760716 0  1.181051704329518 0.1167440895674965 0  1.971354166666667 2.607142857142857 0  4.875 3 0  2.519350561152006 0.08093582719875507 0  3.139443301924015 -1.442524927271905 0  6 2.625 0  1.849169256239503 1.945480934753207 0  1.867196483071171 0.7892354369530077 0  1.192506522009051 -1.184888428863342 0  3.375 3 0  3.603234392481833 2.536866305538572 0  3.846752908916648 -2.537707634073423 0  2.014339897513945 -1.886932065281681 0  4.038392037966526 0.8363324773944992 0  4.421242701722609 -2.552534687860327 0  3.715389848650903 -2.108856956172843 0  2.985668138820625 1.127780908772207 0  0.4500794934449803 -1.173696061598557 0  3.366760888116476 0.8891914618875614 0  1.869163043700093 -0.6107175804171328 0  2.175114838273305 -2.53928723780967 0  3.014417665538299 -2.241523065744933 0  2.625 -3 0  2.819968145332426 -2.617202329573456 0  5.625 1.3125 0  5.563263538826679 0.814027077653358 0  5.625 3 0  2.550041671270923 0.7074928970804664 0  4.014583091741168 2.59891853892166 0  0.6440729668673318 1.499523832583132 0  5.219449799568244 -1.660557808485412 0  3.474012636702472 -0.9300738420779746 0  0.8125 -2.142857142857143 0  1.875 -3 0  4.945010515846405 2.554471797033147 0  2.611388969012422 -0.8478354915063726 0  3.223746055611014 0.3371683159691745 0  4.843939757110898 -0.9483610977948225 0  4.66556954816842 -2.220888354477256 0  4.125 -3 0  4.448108395110625 -0.2524000502731018 0  5.63671875 2.05078125 0  2.822484133964224 1.491327727709286 0  3.378213092764193 1.903125093887009 0  5.607142857142858 -0.9231200445788541 0  2.12639693023183 1.100450516019641 0  5.625 -3 0  0.375 3 0  0 2.625 0  6 -2.625 0  0.3931307155906299 -0.01856779822591927 0  0.7651723094668359 0.253768144801553 0  0.8549199714190221 -0.5218333744252657 0  1.421989550604507 -2.133299471886336 0  1.582611957351803 -2.615166692128227 0  4.420331038793115 1.133144382396504 0  0.375 -3 0  0 -2.625 0  5.078156723571596 1.54697017071479 0  1.877250715260938 -1.288801575378032 0  2.409169073010687 -1.916147168931784 0  1.146151077069952 -0.268000681695328 0  1.726784828652036 0.1335728643263411 0  2.745628549924675 0.3838821021397905 0  3.011490900297165 2.613625569196862 0  5.62463365164608 -4.137655439684362e-05 0  1.875 3 0  1.125 3 0  6 0.375 0  2.625 3 0  6 -1.125 0  6 -0.375 0  4.875 -3 0  6 -1.875 0  3.375 -3 0  1.125 -3 0  0 -1.875 0  0 0.375 0  0 1.125 0  0 1.875 0  6 1.125 0  6 1.875 0  4.813017731148975 0.9677363687196439 0  2.807371623148303 2.264962208227767 0  0.3692953377255688 0.7436406761680247 0  5.615625 2.615625 0  0.9395725521479794 0.9812935874921043 0  1.390920759130215 1.238984550166515 0  0.9588795022085095 1.672288500195331 0  0.87712392565124 -2.641031728267331 0  0.3665732993114588 -1.532068934251388 0  1.841944504733106 1.591700334213738 0  4.832970185136452 0.3385359233091246 0  4.169083540479082 -0.5746148619765254 0  5.281697083409333 -0.2046640461936881 0  4.072845380968044 1.784516523483641 0  1.293029195762321 -1.543079049035419 0  4.878733886054284 -1.720697370582964 0  3.609167475697567 -1.687579152754035 0  4.836981942878573 2.222259978217028 0  4.204938267037067 -0.9128589669335569 0  5.183079748175263 -1.111742407358677 0  1.22880920402559 2.273525645756405 0  1.469404041858679 2.654509729682302 0  4.566761045622856 -1.414165869120005 0  4.531680518427715 1.606803989975667 0  1.918929241273175 2.27471131819245 0  3.526908551984126 2.207147627530056 0  1.85683899811842 0.4533569963423589 0  1.173935704088662 0.4636872214645547 0  2.116602160898525 -2.207718541460878 0  4.51821874648995 -1.042568353750147 0  2.721551512787618 -0.1859357475290837 0  5.294921875 2.001953125 0  5.288671874999999 2.670703125 0  2.199940744527116 0.7756512213396931 0  4.090519467638897 1.163401080812838 0  2.298177083333333 2.670581371753247 0  2.484362362207526 -2.687319997637033 0  3.300530569898859 1.207053005217563 0  3.936078051808127 -1.362164062673065 0  5.341218841330105 0.5689885832563615 0  4.226314635599414 0.5638853401248238 0  2.524510956818563 1.635483567726497 0  0.3219546452225031 1.389066019009203 0  3.139061555368706 -0.3133905221155423 0  3.145569907612562 -0.6461828528638952 0  3.701427442033566 -0.2272880199383185 0  1.686782510365738 -1.934662341426927 0  2.427696494631844 1.944064773844184 0  3.901817839425732 1.422433381251312 0  2.356489883772755 -0.2025512972825912 0  4.820757576351118 -0.01647699434507374 0  3.064415631228375 1.809719380809516 0  4.643002705009462 2.69782572459795 0  4.31624250429496 2.728112685900672 0  1.520100694408069 -1.314302747998057 0  3.754559308601717 -0.5375020107416889 0  0.25 -2.0625 0  0.8125 -1.826636904761905 0  4.861738621091127 -0.6367294570749906 0  1.545149590740081 2.015832101819233 0  3.857113324620078 0.04127675193819436 0  0.2479605082936806 -0.9375 0  4.21293081604216 2.352874368135467 0  3.123697687162562 -2.708090473740421 0  3.415275466010259 -2.202892416689829 0  3.601103065320932 -2.727566580522146 0  1.558629964945672 -0.5289921609136927 0  3.324859026263307 -1.198136798699183 0  2.424350759683917 -1.092246517929194 0  2.746461744851735 0.9398108087856579 0  0.8882026075771248 2.364936378889839 0  0.8066140242673685 2.679750706449505 0  4.504454978490482 0.4491616076730165 0  4.26881784709759 -0.009649566552704852 0  1.3125 -2.75919801263958 0  1.120577805361368 -2.179971784090952 0  3.734048623985226 0.8602850349907256 0  3.527828882622877 1.432983527791925 0  1.959527908877504 -1.578124930685265 0  0.7602573574724077 1.220872343399509 0  0.6691217533356228 0.8531987603309893 0  1.877213035764122 -2.564340152892596 0  3.32172153715047 2.685939810104955 0  4.285565286275464 -1.569057178671076 0  4.227521511146333 -1.876903861267543 0  5.34375 1.40625 0  5.71875 1.59375 0  1.56245959534423 0.766197796710638 0  0.2458241530773257 2.4375 0  0.2794123857609179 2.138568368155198 0  5.754175846922674 -2.4375 0  5.720587614239082 -2.138568368155198 0  0.6472458227887359 2.124973059628837 0  5.124241021325378 -2.352544055105642 0  5.189172233440652 -2.675873509996353 0  5.364643151640443 -2.12768524739804 0  2.298896485720138 1.348573610321417 0  0.6008689899200503 -2.745193425346304 0  0.307092513690391 -2.651812055231556 0  0.2683745826107009 -2.363146293324415 0  0.5223214285714285 -2.165178571428571 0  0.3925308914031174 2.699891746740618 0  5.607469108596883 -2.699891746740618 0  2.138365140930822 1.917102089073091 0  1.25507379660067 1.953406658386351 0  4.135759889512124 -2.476847355718572 0  0.5330865684534913 -0.8980875812659357 0  2.548249345531056 -1.538893887888457 0  2.67686064875775
[...]
<CellData  Scalars="f_26-2"> 
<DataArray  type="Float64"  Name="f_26-2"  format="ascii">4.8308076696235266e+52   3.0932207717562392e+53   2.8223445215539874e+53   6.8037825687227111e+53   1.4851584295309046e+53   2.3446203195122635e+53   -1.1597547452250827e+53   7.9698411313823173e+52   -2.9887799389115367e+51   7.1570721467593368e+51   1.2428748146837576e+53   -2.6348529567750328e+53   -1.0320084730998954e+53   -2.3904855580845804e+53   -1.7644373721737926e+51   -6.0296553180539860e+52   -2.1574665303338206e+53   3.1119244753053170e+52   -4.9369451487428591e+52   -1.5044003461054429e+52   1.9028363069368134e+52   -8.3877290870358885e+52   -7.2771374025519270e+52   2.3666421721997204e+52   6.0309116691644247e+52   -2.4015629101578267e+52   3.8628211190148242e+53   5.2269347391074386e+52   6.7549895924889847e+52   -7.5911489637886094e+51   2.2437206604952030e+52   -1.3030898242708691e+53   -3.1897022685210254e+50   -2.3965961340301418e+53   1.7744840817838745e+53   1.6732125100844589e+53   -5.1861546383802336e+51   1.4809287625740137e+52   -1.9133204191869680e+53   4.4922784074453994e+52   8.7511072348572221e+52   -4.3950494108477740e+51   -1.2685900277797845e+53   -1.3700005286604195e+53   -4.1444835661931943e+53   -1.8781461749579982e+53   -1.6587717312865936e+53   -5.2186871885831968e+54   2.8607644394583131e+53   -2.3578978616907887e+53   2.4954035320309275e+53   -3.8456660618641067e+53   2.2390129394333462e+53   4.4327052708221449e+52   1.8414636948985830e+53   1.6260643458836092e+53   -2.9459412507943686e+53   -1.3362535671748560e+53   -7.6276772415929613e+51   -9.1674282682980323e+51   1.3330916857251991e+52   2.1043398138183659e+52   -1.2908138557668758e+52   -4.5190121528642877e+52   8.9177040969547317e+53   -1.6554711138399071e+54   1.1892033822400761e+52   -6.6888105030443062e+53   -3.7319795766508904e+52   9.7470383174688289e+52   -4.6812207289380826e+52   -1.8417447287361684e+53   6.1447347502620452e+52   7.2306388860092722e+52   -3.3132500857093759e+52   -9.4968470435199040e+52   2.3924257117443148e+53   1.4281443160445806e+52   -7.9615482450831832e+52   -1.6018197126536134e+51   -1.6137579586029732e+52   -9.0847762255943469e+51   -1.7706675177701375e+52   3.7687510439321438e+52   3.2149604948178856e+52   6.1812148984532320e+52   -2.3767438222163654e+52   5.0517932534075565e+51   -3.3287643079563047e+52   -6.1796940849597956e+52   1.5589227193965635e+52   -1.1919349055379116e+53   -4.5199821906708405e+52   1.0254451222739127e+52   2.9902870581328596e+52   2.5445432429857129e+52   -5.0921843590415559e+52   -7.2632270587688132e+52   -3.9901562848701212e+54   1.7685447206525208e+53   1.6218702945253657e+53   5.1324187517822295e+53   1.7992822724473347e+53   2.4080036807246595e+53   -7.1750629514110907e+52   -3.6315764889530983e+53   6.2970295562753935e+54   -9.8031565685131871e+52   -1.5319560759609733e+53   6.8973975047494932e+52   1.1067594353925162e+53   -1.1132994583053598e+53   -9.3625366726494245e+52   -3.0181173656777134e+52   -2.2763809570249248e+52   7.0029950027937977e+51   4.4317163025404013e+51   -5.8399185317451083e+52   -1.4036180840769276e+52   1.1991958366129450e+52   5.0180826673849535e+52   -4.8711415023071331e+51   -7.3932366045003312e+52   1.2204385899508565e+52   3.4477318546660188e+51   -5.0434869938027009e+51   -1.0050933466104665e+52   1.0393948260266673e+54   -1.4002081354818244e+51   -1.7506309083400418e+53   -3.3491281097446098e+53   8.1881142040126211e+52   6.5149374800941172e+53   -4.5156455705987122e+52   -6.4600951179877402e+52   -7.8777024877212042e+52   1.4485800430484719e+54   4.5941309628242445e+53   -7.7735767459229908e+52   -1.2845080582617720e+53   -1.0889014179732199e+53   -1.2416428979718831e+53   -8.7737720803263181e+52   -3.3562243234368671e+52   1.0791803442025741e+52   -2.3377685742489147e+51   3.1615514288463226e+53   1.5301722272536625e+53   4.0612809357634840e+51   1.5480635883410334e+53   -1.6151900210119187e+53   -4.2174218222861537e+53   -9.5389628813992545e+52   -1.5424013189450716e+53   3.0778701346416679e+51   -1.1866782944258263e+52   4.4500865508920519e+52   5.1643379977017054e+51   -1.9841538778532224e+54   -3.0225201387976467e+53   -2.9266789344089047e+54   1.0199162724526607e+53   5.4452517230923771e+52   7.5441956111304913e+52   8.3219711412048043e+52   6.9983773306303943e+52   6.2073485454957290e+52   1.0570168188074175e+53   2.3656479672979442e+52   1.2485166019383670e+52   -6.1391436516751560e+52   -7.8172194707208562e+52   -3.6829893221802197e+53   -3.9037145356545672e+53   -7.5161425016808640e+52   -4.0980194918976528e+52   9.0089060024044632e+52   1.4821075023014181e+53   1.0256864374446180e+53   5.0943372232552952e+53   2.9385119803602574e+54   4.9722335040668520e+53   7.8265682330820817e+51   -1.3747463222816882e+52   1.7097536704785315e+52   4.9018045592782665e+52   1.0631440648830523e+53   -2.8594220779907636e+53   -2.1672696227748854e+52   -5.5806969710668438e+51   -3.3046095724940183e+52   -3.0989343707248663e+51   1.7964566845906615e+53   2.1110553723985088e+53   1.2692549198449476e+53   1.6277318998971917e+53   2.1007729248390527e+54   3.6393586288483895e+53   1.4709589996157994e+52   1.3110405825020422e+53   1.3855829071468436e+53   -1.2633447916809580e+53   -1.4940238130939729e+53   -1.6396250148275764e+53   -9.2645819349910955e+52   8.2185393561477794e+51   1.9095125674971110e+52   -6.5543189951093845e+52   -4.4970140298954677e+52   7.8819218141245217e+52   1.6628307920863176e+53   -5.9580581896959070e+52   -5.7620775358078885e+52   7.3971835553160482e+52   1.0093011585635208e+53   -3.7273941819327957e+52   6.4411970245706576e+52   4.8088820104975336e+52   -1.8087085469297494e+53   -1.1639319000580469e+53   -9.2776585682678707e+53   -1.4722831386942872e+54   3.3476852272478943e+54   2.6942445438965535e+54   -3.3830649520964189e+52   4.3190164238676172e+54   4.3880137571365013e+54   -4.5164270586178468e+51   -1.9815116860824939e+52   3.9238388626063133e+54   1.9111917068599353e+54   -5.6455284526764048e+52   1.4883358375591906e+52   8.8628067025360803e+50   7.9124343076260248e+51   3.5311835431621907e+52   3.8706242686521810e+52   5.9598826193934739e+53   -9.2310024800560128e+52   -2.2720355593038363e+54   -4.1736112936930472e+54   -4.8867154943143622e+53   -5.3980560897887480e+53   1.2762383044508312e+53   9.7883723476777972e+52   -4.5427288400579341e+52   4.3245942060524841e+51   -4.4614485769608644e+51   -2.8096053283996838e+52   -6.0897274594161619e+51   2.1109080559098917e+51   -6.6662084894559757e+53   -6.8701527173480198e+52   -6.7987723207173875e+52   -2.6593706220481118e+52   3.5916052391462495e+54   -1.6197425862701597e+52   -4.6557800455235607e+52   -5.5004306035956188e+52   -8.7068508731098008e+52   3.9326823918168301e+52   -5.1217315425499145e+52   -2.4851484268133991e+52   8.5483545617971371e+51   -1.1082557122765302e+53   -2.6749394573504183e+53   -4.5710097362603313e+52   1.9548260620338698e+53   -4.0109981435303736e+52   -6.4986977684340599e+52   -8.2171854594221442e+52   1.8805091346183854e+52   -1.0456372358026748e+54   -3.3175096609569706e+52   5.8072601094421233e+52   4.8597954025916307e+52   -3.4953263718438794e+53   1.0240933295212964e+53   2.9128361737542045e+53   4.0202612173449276e+53   -1.0656674901835483e+54   -7.8547698638373354e+52   -1.6765969961361743e+53   -1.6254895075626748e+53   -9.4620480551384980e+54   -4.1290302275774433e+54   -9.2038593733495527e+54   -5.4451747566868048e+53   -1.3492019458410722e+53   -4.9074853144865734e+53   2.0457777549759644e+53   2.7997377431494848e+53   7.5910472620823426e+52   5.9657701953980206e+52   1.1704906714988074e+53   5.7185146604426262e+52   5.7769479014865866e+52   7.5405773072340267e+52   -9.9949171671257659e+51   -2.3400563830458534e+52   1.6068850306903002e+54   7.2643435911012478e+53   1.6266834450447870e+52   2.0017265714917494e+54   1.2833735653105289e+53   8.1815430013919466e+53   1.4703537381556089e+53   2.0004723410721001e+53   1.0217746723100527e+54   2.7397828986367701e+54   8.1370237211232370e+52   1.5770439355780285e+54   1.5643717520696887e+53   4.1097513492567870e+53   8.1348173015318869e+53   7.0290207975725387e+53   -1.8659892624921879e+53   -1.2648093106562211e+54   7.0620560479766785e+52   1.2109613515854586e+53   -1.8784648737531572e+52   -8.4071014352812683e+53   -4.0873847182242421e+53   -7.7039920196642630e+54   -1.5934853760136396e+54   -1.8526836125414570e+54   -1.7774408410247734e+54   -2.2946229321161682e+53   -4.5534274073783387e+52   -4.6623291885774117e+53   -8.6957882742476416e+52   -1.5102364763059107e+53   1.4963997233187270e+54   3.5416488879825350e+54   3.4534337655061421e+54   1.7299699061233778e+54   -2.2807681123121684e+53   -1.9182166709903386e+53   -3.8622000980941581e+52   -3.4910510125646551e+52   -1.2821901017332710e+54   -5.9994439903038931e+53   5.1494005071979239e+54   2.5606209048935745e+54   3.2265040063408608e+52   1.2491722825047915e+52   3.8868193711676109e+51   5.9523394588672603e+51   9.5955079378849545e+51   8.0767986661912066e+51   -4.3539080761218711e+54   -2.0297796710550930e+54   -2.6258275244953418e+54   -1.2755273060260584e+54   -1.3368167836612002e+52   -1.6684530166729598e+52   -1.0996001592613976e+53   -7.7855360829100569e+52   -4.3158862045759509e+52   -5.0967870736196260e+52   6.9223755235760849e+52   -4.2550065692395097e+52   -1.2379402704913062e+53   -2.1165144874149974e+53   3.2802102869507906e+53   4.3679386211363795e+53   -9.2409215320153530e+51   2.4185793124582566e+51   4.1053708488114212e+52   4.5731920030058961e+52   -4.2386395245174676e+53   -4.5512607644058435e+53   -2.2550766085453752e+52   8.8697053400258146e+51   -5.1741238121138004e+52   -3.1446764963092719e+52   1.1654089014414404e+52   -1.7574684375849380e+52   1.0661452674774420e+54   4.0645222921375242e+53   -1.0519708582228910e+52   -1.3541592695098948e+52   -2.5191208209924875e+53   -2.6705717938671149e+53   -3.0022836382421743e+51   3.0495562095795355e+52   -1.0577280705663802e+53   -4.7577072387329588e+52   4.7346112518613628e+52   3.3986660049976506e+52   1.5277568070108644e+52   3.3001409257423305e+52   1.5330460300549132e+53   -1.0973867890694014e+54   -1.2642194175438490e+52   -3.1029141532787971e+52   4.1277680426018236e+52   2.3528595241796208e+52   -4.1769012219625065e+53   -3.6495539513850180e+53   2.3811460969461096e+54   4.8062465181053275e+54   1.8067948823217043e+52   3.2609474318403768e+51   -1.9166988958100925e+53   -1.5229320444738901e+53   5.2276333119769656e+53   9.2142437653906958e+53   -2.4832754741670862e+54   -1.8561712159189437e+54   -9.3372742572883749e+52   -1.1059989742366104e+53   1.8421480332262318e+52   3.0100270639871332e+52   -9.0919909571601360e+52   -3.7900517802217485e+52   -1.2224119030018696e+53   -1.3481234438663805e+53   -1.2773383355522078e+52   -2.7527343728241290e+52   -8.4115068260488968e+53   -1.8671385411024726e+53   -1.5102467420810550e+52   -1.9816567484118844e+50   2.3924589087456484e+52   1.4787288405302198e+52   -3.2424186673912328e+52   -3.1239829891487688e+52   2.0921973404404868e+53   2.1291936752032148e+53   -3.0525652934932588e+52   -7.3612507589370866e+51   -1.7250617914254311e+53   -1.4079591036466482e+53   4.3220174248585002e+52   6.4382796517598229e+52   -9.4049544274126028e+52   -9.8697515089839153e+52   -5.9099647696982038e+52   -6.7669934458238949e+52   1.7278243195295706e+53   2.5358007610874716e+53   3.3853329637998343e+54   1.4465480662395420e+54   2.3636653360122458e+53   2.2084365984991278e+53   5.7302942423764373e+51   -8.8895902967334816e+50   -3.4268496711928452e+53   -1.2922726205781337e+53   5.8354712406599376e+53   5.7250082848206222e+53   -5.1966041536641806e+52   -6.2671353979621353e+52   1.2837878893548128e+52   1.2324345368427274e+52   -7.5425371963718793e+52   -5.4881204465459263e+52   -2.4843471295422516e+53   -1.1074703725913018e+54   -2.6775321507499239e+53   -3.0460614451291550e+53   -1.4132388776652804e+54   -2.3057610742030589e+53   3.7135185685956610e+52   -2.1762194239802996e+52   -6.7256635764686618e+53   -1.2665328379039264e+54   1.1670079554983077e+53   1.3220000878550721e+53   6.6410523350644960e+52   4.9348189575966996e+52   1.7231492543319950e+53   1.2079227350305860e+53   -4.6817338982223356e+52   -2.8932497734490621e+52   2.9121547793255729e+52   7.3179949934248031e+51   2.0116000067231857e+52   -2.0634624525684223e+52   -1.1728818283577413e+53   -1.3962069567853191e+53   -7.1931043758035004e+52   -7.5227074346951852e+52   -1.7345624507481113e+54   -3.1691659664924909e+53   4.2446536560320203e+53   4.9464132191356319e+53   -1.0100589046636227e+53   -9.2957486484433917e+52   -9.1226445906536616e+52   -1.0509875805533491e+53   1.9264805567013466e+53   2.1878757432234950e+53   1.9727595630862412e+52   1.5380251794698930e+52   1.1630278324503567e+52   -7.6448892771217461e+51   -5.1361786992214962e+52   3.2708151748898449e+52   2.7878868949060577e+54   1.2210552028029342e+54   4.6456027097589796e+51   -3.8309020836401413e+51   -3.6503833158176948e+51   2.7363101083729189e+51   -3.0841530657546605e+53   -2.5860984245984250e+53   1.6995314842437125e+54   3.1365811188944673e+53   2.9108073536002301e+52   3.7019337749229435e+52   -2.8579883623850526e+52   -4.4384080772479994e+52   -3.3096570258243086e+53   -2.0881479803356239e+53   1.3672926614504598e+52   5.3324227569962855e+52   2.7617542039101945e+53   1.8776963475905620e+53   6.0774076994238744e+51   5.8821008856242277e+51   5.2972811916063830e+52   2.7551874592673303e+52   -1.5720157886962721e+52   2.4441215423859688e+52   4.8301340094573284e+52   8.1028940035835617e+52   -4.4564675341548860e+52   -3.5903847027113563e+52   -2.9664734420463220e+54   -1.3141398303378076e+53   -7.2978238565740960e+54   -4.0412255342655416e+54   -3.4301754302416529e+53   -3.0834936626775294e+54   7.2884034011631123e+53   5.6796762269433096e+53   6.8125071706433567e+52   4.3655967211200664e+52   -1.0920310810670192e+53   -1.6593635395670184e+53   -1.3582044253918733e+52   -1.6892486934342268e+52   6.4228658798011182e+51   7.7444763698691465e+51   -1.9893830557449985e+52   4.2880052325564888e+51   1.5659122758651144e+53   8.2669213771456590e+52   1.2757887415462710e+53   1.0761246193112187e+53   8.4807571703732513e+52   8.8385868419172350e+52   6.2241229045161044e+52   7.4279785428671614e+52   -2.9834463831528438e+52   6.7395566008463760e+51   -1.0467953924352758e+53   -9.1058951210410390e+52   -7.4040237012670372e+52   -8.2324860457335361e+52   6.5568293220236436e+52   7.2373731598814775e+52   -8.9124288703006879e+51   -9.5264018002444652e+50   2.2691077211474241e+53   5.3552474273020019e+53   -2.6990072647428272e+53   -7.4651253926896430e+53   -8.1108419329800216e+53   -2.6339493132026818e+53   5.8856653550017853e+53   1.2832530778741738e+53   9.1970153169428785e+52   2.2943209241045453e+54   3.1473715946971188e+53   3.7792033018327922e+53   8.1603492917469732e+51   5.0126572977076642e+51   -7.4094802013562186e+51   -1.7589220076565658e+51   -1.4645897762397631e+52   -1.9067278589540421e+51   -1.8865822565310724e+53   -1.7455293899875440e+53   3.0054734012342136e+52   4.7515572083811629e+51   1.2676027772661143e+52   2.1775119931839525e+52   -5.9571226301096747e+52   -4.8835992526959050e+52   1.5847778355202819e+53   7.3774360848824148e+52   6.8209875197448940e+50   7.3273406152209233e+51   1.8675501292479710e+52   2.1468949168621353e+52   -1.5572660003024722e+53   -1.7484460613076736e+53   1.7743197493999097e+53   1.8226204363963383e+53   -7.0127391346484870e+51   2.3705734862414701e+51   -1.0938608999024445e+54   -4.3581349192043314e+53   2.0695544462120292e+53   2.0276071408892450e+53   2.8153963003046690e+52   4.9308598685604852e+52   1.3455037102567345e+54   6.9571107462645735e+53   -5.6275344693854307e+53   -1.6878157009227049e+54   -8.6422843044912020e+52   -7.7800206373461610e+52   8.3855229397646407e+52   1.0098274150138251e+53   -3.4930797360426464e+53   -4.0244556542379114e+53   -2.9775399757173878e+53   -3.0668328861683896e+53   -1.9536749783737282e+51   -8.2627157462214197e+51   3.4676436357783399e+53   7.4198081264738307e+53   -2.1554386761074737e+52   9.5190301475949540e+51   -8.2910029519253715e+53   -2.6767001186707847e+53   -3.8996262533405840e+51   3.7545201216394692e+52   3.7012512027608069e+53   1.9556625783726456e+53   1.0115232064792516e+53   1.0113918627870915e+53   -6.1482031521831826e+53   -1.2017875425864639e+54   -3.6340800889843676e+53   -3.8525871521598957e+53   -4.8884834275808668e+53   -1.5067183773721503e+53   5.1624008210213246e+53   1.6127488658068058e+54   -1.6429725037985198e+52   -2.6862225268992416e+52   1.2038188161602156e+53   4.9974972368237103e+53   2.5230648329954706e+53   2.2648205288213043e+53   3.9947577159956265e+53   3.8080625858563835e+53   4.4574484168610184e+53   5.0396390482963995e+53   3.8620457534663897e+53   1.1678984101168489e+54   -1.9705342063287589e+53   -5.0009223459908829e+53   -8.6669550444838575e+53   -1.9881170738636419e+54   4.8671392803133253e+53   2.9649375493007890e+53   9.6072573058735691e+53   3.8333045820956013e+53   1.5582996079980360e+55   1.5468789777304607e+55   -1.2814841418836499e+53   -1.3067111771157381e+53   -1.2104894431586427e+53   -1.0071507284936955e+53   7.2835484917480146e+52   6.8985669983661668e+52   2.2608974759027980e+54   6.1843688949616114e+53   -3.0132047347593673e+53   -2.4399911355833052e+53   -2.5991672157027214e+51   -6.8624082011749429e+51   -5.4385418354351544e+52   3.8860168867518233e+51   -7.2659298518376594e+51   -2.2595098309780927e+52   -9.4300364624314160e+53   -3.8297258742814874e+53   7.3198907404298687e+53   5.5210427117413304e+53   -5.3688215973400970e+53   -5.1280675929312617e+53   4.6159340929889370e+52   3.3264856954550934e+52   7.1774767299251018e+52   5.6991967996460854e+52   2.9515670402896360e+51   7.1598497695037980e+51   4.1961122898170017e+52   3.4467294981630504e+52   1.8895611622142448e+53   2.0195848107248411e+53   1.5085796672035636e+53   1.6137965191563550e+53   1.4841385428915234e+53   1.4165390265271089e+53   1.1610835143175927e+53   1.3423647095285063e+53   -2.2180351894249198e+52   -2.1097313848859933e+52   -2.6860487142311696e+52   2.5622062173027044e+51   </DataArray> 
</CellData> 
</Piece>
</UnstructuredGrid>
</VTKFile>