<?xml version="1.0"?>
<VTKFile type="UnstructuredGrid"  version="0.1"  >
<UnstructuredGrid>
<Piece  NumberOfPoints="2534" NumberOfCells="4892">
<Points>
<DataArray  type="Float64"  NumberOfComponents="3"  format="ascii">0 3 0  0 -3 0  6 -3 0  6 3 0  3 -3 0  6 0 0  3 3 0  0 0 0  3 0 0  0 -1.5 0  1.5 -3 0  1.5 3 0  0 1.5 0  6 -1.5 0  4.5 -3 0  6 1.5 0  4.5 3 0  4.25 -1.25 0  1.75 1.25 0  2.25 -1.5 0  4.5 0.75 0  1.541666666666667 -0.2083333333333333 0  3.219827586206896 1.521551724137931 0  1.125 -1.875 0  4.875 1.875 0  0.8702651515151515 0.631628787878788 0  2.25 2.214285714285714 0  3.316176470588236 -1.904411764705882 0  5.214285714285714 -0.75 0  5.03125 -2.03125 0  0.96875 2.03125 0  4.041666666666667 -0.2083333333333333 0  0.8205128205128206 -0.9134615384615387 0  3.942582294752138 2.189194098250713 0  3.061487638533674 -0.968243819266837 0  2.192708333333333 0.4427083333333334 0  4.157850026972511 -2.182329047049442 0  2.331456616463011 -0.5285296485744057 0  3.654761904761905 0.5654761904761902 0  5.25 1.125 0  2.563673341677096 -2.280663329161452 0  5.126674107142857 0.1283482142857142 0  0.75 -3 0  0 -2.25 0  6 2.25 0  5.25 3 0  0.7680051888903191 -0.1384245958639337 0  1.617229471026718 -1.006949429867069 0  4.218940341429579 1.468686552856807 0  3.75 -3 0  2.25 -3 0  0.75 3 0  5.25 -3 0  6 -0.75 0  0 -0.75 0  0 0.75 0  2.25 3 0  6 -2.25 0  0 2.25 0  3.75 3 0  6 0.75 0  1.787573018358365 -2.279142327213878 0  3.195025188237337 2.273430909158844 0  2.528159645294386 1.151699106559287 0  1.041598427383826 1.322848427383826 0  1.520951704545454 0.4634232954545453 0  1.580357142857143 2.325892857142857 0  4.919642857142857 -1.361607142857143 0  4.54981623521892 -0.6483700862895494 0  2.99317863826574 0.6697091957925523 0  3.450169349029507 -0.4574865881858001 0  3.605016126014028 -1.323102984840902 0  2.745144658907412 1.882241931337371 0  0.4898065586600511 1.092777516238393 0  0.5 -1.875 0  1.217028489597945 -2.469323836800685 0  1.659912685567181 -1.604738056701542 0  5.4375 1.6875 0  5.34375 2.34375 0  4.52741779500503 2.384139265001677 0  3.375 -2.514804579549941 0  0.5446428571428571 -2.455357142857143 0  2.766554087216865 -1.745795909102064 0  4.525516559010988 0.1490283123570637 0  3.87554132162248 -0.8280516069565407 0  4.53622906132958 -1.76963146596888 0  0.4243951612903226 1.875 0  0.554851858345021 2.446861709948876 0  5.575604838709677 -1.875 0  5.445148141654979 -2.446861709948876 0  4.875 -2.575604838709677 0  1.440573466105381 1.721823466105381 0  2.193519495405082 1.631799415080963 0  5.472630128027442 -1.330813078900983 0  4.750126894286386 1.343813447143193 0  5.607142857142857 -0.375 0  2.625 2.607142857142857 0  0.3921763197810531 0.375 0  5.60901753622775 0.3750000000000001 0  1.125 2.613454943235572 0  3.701856738980915 1.163867513386733 0  3.736112850688509 1.696746876851408 0  3.519183195491339 0.06065128742606851 0  3.973620778217027 -1.693401606145563 0  0.8125 -1.444978632478633 0  1.256657745408029 -0.6381828923025001 0  0 -1.125 0  5.019997778514942 0.6475044429701156 0  4.125 3 0  1.285569332703024 0.8955310332120207 0  0 -0.375 0  0.4638922275641027 -0.5625 0  2.056635259780241 -0.07226025978024064 0  2.130475508371123 -1.000827820434028 0  2.677484372338113 -1.267299126394495 0  2.848680878891876 -0.4956836878192376 0  4.937901885089369 -0.3340245904575954 0  4.393563081308854 1.919544166973803 0  4.053859126323572 0.2813938488760716 0  1.181051704329518 0.1167440895674965 0  1.971354166666667 2.607142857142857 0  4.875 3 0  2.519350561152006 0.08093582719875507 0  3.139443301924015 -1.442524927271905 0  6 2.625 0  1.849169256239503 1.945480934753207 0  1.867196483071171 0.7892354369530077 0  1.192506522009051 -1.184888428863342 0  3.375 3 0  3.603234392481833 2.536866305538572 0  3.846752908916648 -2.537707634073423 0  2.014339897513945 -1.886932065281681 0  4.038392037966526 0.8363324773944992 0  4.421242701722609 -2.552534687860327 0  3.715389848650903 -2.108856956172843 0  2.985668138820625 1.127780908772207 0  0.4500794934449803 -1.173696061598557 0  3.366760888116476 0.8891914618875614 0  1.869163043700093 -0.6107175804171328 0  2.175114838273305 -2.53928723780967 0  3.014417665538299 -2.241523065744933 0  2.625 -3 0  2.819968145332426 -2.617202329573456 0  5.625 1.3125 0  5.563263538826679 0.814027077653358 0  5.625 3 0  2.550041671270923 0.7074928970804664 0  4.014583091741168 2.59891853892166 0  0.6440729668673318 1.499523832583132 0  5.219449799568244 -1.660557808485412 0  3.474012636702472 -0.9300738420779746 0  0.8125 -2.142857142857143 0  1.875 -3 0  4.945010515846405 2.554471797033147 0  2.611388969012422 -0.8478354915063726 0  3.223746055611014 0.3371683159691745 0  4.843939757110898 -0.9483610977948225 0  4.66556954816842 -2.220888354477256 0  4.125 -3 0  4.448108395110625 -0.2524000502731018 0  5.63671875 2.05078125 0  2.822484133964224 1.491327727709286 0  3.378213092764193 1.903125093887009 0  5.607142857142858 -0.9231200445788541 0  2.12639693023183 1.100450516019641 0  5.625 -3 0  0.375 3 0  0 2.625 0  6 -2.625 0  0.3931307155906299 -0.01856779822591927 0  0.8549199714190221 -0.5218333744252657 0  0.7651723094668359 0.253768144801553 0  1.421989550604507 -2.133299471886336 0  1.582611957351803 -2.615166692128227 0  4.420331038793115 1.133144382396504 0  0.375 -3 0  0 -2.625 0  5.078156723571596 1.54697017071479 0  1.877250715260938 -1.288801575378032 0  2.409169073010687 -1.916147168931784 0  1.146151077069952 -0.268000681695328 0  1.726784828652036 0.1335728643263411 0  2.745628549924675 0.3838821021397905 0  3.011490900297165 2.613625569196862 0  5.62463365164608 -4.137655439684362e-05 0  1.875 3 0  1.125 3 0  6 0.375 0  2.625 3 0  6 -1.125 0  6 -0.375 0  4.875 -3 0  6 -1.875 0  3.375 -3 0  1.125 -3 0  0 -1.875 0  0 0.375 0  0 1.125 0  0 1.875 0  6 1.125 0  6 1.875 0  4.813017731148975 0.9677363687196439 0  2.807371623148303 2.264962208227767 0  0.3692953377255688 0.7436406761680247 0  5.615625 2.615625 0  0.9395725521479794 0.9812935874921043 0  1.390920759130215 1.238984550166515 0  0.9588795022085095 1.672288500195331 0  0.87712392565124 -2.641031728267331 0  0.3665732993114588 -1.532068934251388 0  1.841944504733106 1.591700334213738 0  4.832970185136452 0.3385359233091246 0  4.169083540479082 -0.5746148619765254 0  5.281697083409333 -0.2046640461936881 0  4.072845380968044 1.784516523483641 0  1.293029195762321 -1.543079049035419 0  4.878733886054284 -1.720697370582964 0  3.609167475697567 -1.687579152754035 0  4.836981942878573 2.222259978217028 0  4.204938267037067 -0.9128589669335569 0  5.183079748175263 -1.111742407358677 0  1.469404041858679 2.654509729682302 0  1.22880920402559 2.273525645756405 0  4.566761045622856 -1.414165869120005 0  4.531680518427715 1.606803989975667 0  1.918929241273175 2.27471131819245 0  3.590183783343969 2.184680610175416 0  1.85683899811842 0.4533569963423589 0  1.173935704088662 0.4636872214645547 0  2.116602160898525 -2.207718541460878 0  4.51821874648995 -1.042568353750147 0  2.721551512787618 -0.1859357475290837 0  5.294921875 2.001953125 0  5.288671874999999 2.670703125 0  2.199940744527116 0.7756512213396931 0  4.090519467638897 1.163401080812838 0  2.298177083333333 2.670581371753247 0  2.484362362207526 -2.687319997637033 0  3.300530569898859 1.207053005217563 0  3.936078051808127 -1.362164062673065 0  5.341218841330105 0.5689885832563615 0  4.226314635599414 0.5638853401248238 0  2.524510956818563 1.635483567726497 0  0.3219546452225031 1.389066019009203 0  3.139061555368706 -0.3133905221155423 0  3.145569907612562 -0.6461828528638952 0  3.701427442033566 -0.2272880199383185 0  1.686782510365738 -1.934662341426927 0  2.427696494631844 1.944064773844184 0  3.901817839425732 1.422433381251312 0  2.356489883772755 -0.2025512972825912 0  4.820757576351118 -0.01647699434507374 0  3.064415631228375 1.809719380809516 0  4.643002705009462 2.69782572459795 0  4.31624250429496 2.728112685900672 0  1.520100694408069 -1.314302747998057 0  3.754559308601717 -0.5375020107416889 0  0.25 -2.0625 0  0.8125 -1.826636904761905 0  4.861738621091127 -0.6367294570749906 0  1.545149590740081 2.015832101819233 0  3.857113324620078 0.04127675193819436 0  0.3162874907704933 -0.864918315983958 0  4.21293081604216 2.352874368135467 0  3.123697687162562 -2.708090473740421 0  3.415275466010259 -2.202892416689829 0  3.601103065320932 -2.727566580522146 0  1.558629964945672 -0.5289921609136927 0  3.324859026263307 -1.198136798699183 0  2.424350759683917 -1.092246517929194 0  2.789248065239812 0.8954629970670158 0  0.8882026075771248 2.364936378889839 0  0.8066140242673685 2.679750706449505 0  4.504454978490482 0.4491616076730165 0  4.26881784709759 -0.009649566552704852 0  1.313479173834523 -2.758675889510418 0  1.120577805361368 -2.179971784090952 0  3.734048623985226 0.8602850349907256 0  3.527828882622877 1.432983527791925 0  1.959527908877504 -1.578124930685265 0  0.7602573574724077 1.220872343399509 0  0.6691217533356228 0.8531987603309893 0  1.877213035764122 -2.564340152892596 0  3.304349402914068 2.552016594979913 0  4.285565286275464 -1.569057178671076 0  4.227521511146333 -1.876903861267543 0  5.34375 1.40625 0  5.71875 1.59375 0  1.56245959534423 0.766197796710638 0  0.2458241530773257 2.4375 0  0.2794123857609179 2.138568368155198 0  5.754175846922674 -2.4375 0  5.720587614239082 -2.138568368155198 0  0.6472458227887359 2.124973059628837 0  5.124241021325378 -2.352544055105642 0  5.189172233440652 -2.675873509996353 0  5.364643151640443 -2.12768524739804 0  2.298896485720138 1.348573610321417 0  0.6008689899200503 -2.745193425346304 0  0.307092513690391 -2.651812055231556 0  0.2683745826107009 -2.363146293324415 0  0.5223214285714285 -2.165178571428571 0  0.5169611136983336 2.740349995819724 0  5.607469108596883 -2.699891746740618 0  2.138439274270545 1.947386893596098 0  1.25507379660067 1.953406658386351 0  4.135759889512124 -2.476847355718572 0  2.548249345531056 -1.538893887888457 0  2.771010284190282 -2.05339728351
[...]
<CellData  Scalars="f_26-2"> 
<DataArray  type="Float64"  Name="f_26-2"  format="ascii">-2.7966489127554414e+160   2.1990826467258627e+159   -1.4038487872603637e+160   4.5173152947823384e+159   -5.8950408626907011e+159   3.3342883532913908e+160   2.0323285350695996e+159   -1.8172334226429740e+160   6.2747415801678574e+159   -6.2991086286976129e+159   1.3817497382321427e+160   -3.6765072444187992e+159   5.4461524765951240e+159   -5.0383483941135798e+159   -6.9485251608423480e+158   6.9406850693526071e+159   1.9592895363671046e+159   -3.7260844817830463e+159   -9.5751951456573946e+159   -5.2287268102211396e+159   8.5432327199101444e+159   -2.6192813323402166e+159   -1.0370917484403902e+160   7.3577119426485998e+159   -7.6289814970382424e+159   -6.0297520145853394e+159   -2.5528996467582852e+159   -3.0610659368094780e+159   1.3862364186415063e+160   -1.1618072401221755e+160   6.6447544520221115e+159   -1.4076385897727399e+159   -6.7181139246940069e+159   1.6418707128772089e+159   4.0878457978931965e+159   -1.3331198920412756e+160   1.0680935343896309e+160   1.1612602079940756e+159   -1.3708679917794898e+159   1.4643799942313786e+160   -6.9137233683491348e+158   -1.6635406935807832e+160   3.3103537659089024e+159   -2.2387402514203571e+158   -1.2894007024520594e+159   -5.3908089916295760e+158   6.5469796944602177e+159   -8.6138168645901060e+159   -4.2621317932579826e+159   1.5489005106743396e+159   9.7080694734832764e+159   4.6914180346017900e+159   -4.8564445496084078e+159   -6.8319046593046200e+159   2.4024773662409700e+160   7.6412149742554465e+159   -4.0824677101520461e+159   3.9353166693341736e+159   1.5722568807785956e+159   2.0065867768148824e+160   4.8187620980296432e+158   -4.8129193520799442e+158   9.3126596441455111e+159   -1.0333356881437465e+160   -2.2166011791624158e+160   1.0406695403993551e+160   9.6041072039172792e+158   5.0907054937350014e+159   -5.3664842944135602e+159   -1.7874684766102092e+159   1.7479863374248292e+159   3.3003305590286589e+159   -1.1482317881764722e+160   -2.1341344477714998e+159   1.4366569307080748e+159   1.5518863840858084e+159   -4.0615363259221239e+159   -7.2801349435124738e+159   -6.0403523869661670e+158   -9.7456344888620868e+159   2.0858053490927388e+160   -9.9842515128151699e+159   -2.2561050135871328e+160   -4.7893656652689487e+159   1.6520445123591045e+160   2.2495775551584940e+160   7.5317291334026534e+159   -1.6964308700184220e+160   1.1946769467350213e+160   4.8712828417175113e+159   -1.3075632988195981e+160   4.9623839428275282e+159   -6.4451732510400826e+159   -6.9714434099270515e+159   -3.6953489218839900e+160   3.9262836532878858e+159   9.1576016715982344e+158   1.3042456618125660e+160   -1.3064329463593354e+160   1.0779147687273059e+160   1.3373386429760947e+159   1.1151905355962259e+158   -5.0457082687611197e+159   6.9691206190237967e+158   3.6248708783305209e+160   -2.1392381876563619e+160   -2.2007851198554635e+160   1.5298841910395355e+159   1.3940668661853311e+160   5.7561811865738974e+159   1.7504301133120568e+160   -1.3319197128018881e+159   3.7927775363806429e+159   1.1222770169885525e+160   4.4516292517675569e+159   -4.7548695728682027e+159   -5.9832559017796190e+159   3.0278575480214820e+159   -2.2271021956712659e+160   -9.0338967291296594e+159   -1.9889751077952829e+160   2.6178792652695901e+159   3.8943887757035306e+158   -4.3277314249529763e+159   -2.9861312931185714e+160   -1.1093082981062767e+160   -2.6947693577805943e+160   -2.1358317685100327e+160   4.3141511576329219e+159   -3.3117824840519467e+160   4.0617040459421785e+159   2.8006122927211508e+159   -1.7479759600845606e+159   1.2277845919475635e+160   -1.4728789543926629e+160   3.3103877869694140e+159   -4.2926463376169443e+159   9.9566705044482051e+158   2.0280839336848576e+159   2.6199490835425038e+159   1.5351742137585412e+159   -1.3450787140762713e+158   -6.2987435891072979e+159   2.0022349436921609e+159   -2.8160275493622474e+159   4.5503645821678818e+158   9.1845704742442364e+159   1.1278468230697688e+160   -1.2156621150872268e+160   -4.4522131522334688e+159   2.1662972479675579e+160   5.3096284250192020e+159   -4.0117591179632550e+158   -1.3011375618062940e+160   1.3337297717825702e+160   8.7720107245582166e+160   -5.2027976142133892e+159   9.5526388538399114e+159   1.9814666311078402e+159   -1.4371099018310873e+160   -3.3677386340342853e+159   -2.2064093435803235e+160   1.8012960604826025e+160   8.9542510509891806e+159   -6.4549425613991087e+159   -5.7404315120853716e+159   -6.8850536411325350e+159   -2.0616378183603401e+158   2.1231964405848566e+160   -2.1770202397633878e+159   -3.5233666982739636e+159   9.8515400875221769e+159   2.9265883482787119e+160   -8.5699406277564392e+159   4.5266410108873397e+158   3.2900816952243009e+159   -5.0422402848856477e+159   1.1562056581038972e+160   2.4690962749978900e+159   -3.0530584318903143e+159   1.6444603971156651e+159   2.0037835907982220e+159   -2.4950708548349329e+159   6.8979989856412542e+159   -6.0626937947131953e+158   9.2505432468624158e+159   2.4092099721735714e+159   9.3723787151504612e+159   4.5399047473803734e+158   2.2268044085008770e+159   -4.0578068532703138e+158   2.8361263759220167e+159   -1.1265924607306889e+159   5.0165528569277836e+159   1.3666909912464930e+160   2.7936309117603739e+159   5.7304827381939517e+159   9.9678578519651168e+159   -2.8369000315234945e+159   -6.8822859529183006e+159   4.6697810653556585e+159   -1.4343967257339283e+160   2.4388223783434308e+160   7.7268563510757010e+159   1.2022901002315024e+160   -1.3757383303153734e+159   5.9359404267892180e+159   -5.3739328459749987e+158   -6.6947139102709091e+159   -6.9742033375717681e+159   1.5001412409379796e+159   -5.3881830921873735e+159   1.4360344728036144e+159   3.6353773717091466e+159   3.7804813128313846e+159   3.0504948288724492e+159   1.2958678994982683e+160   -3.1614089667609922e+160   2.5845908021686693e+158   -6.1782548141991130e+158   5.1117347923508815e+159   2.8823870781782514e+159   5.9549258365015880e+159   4.1688226627051023e+159   -3.8882747766008579e+158   -8.6475401013041537e+159   3.0186873950174770e+159   -2.3084399213011697e+159   6.2449054355149290e+159   8.4333964957007825e+158   -1.2804914743068496e+158   -6.4157593054785122e+159   5.9575989738659230e+159   4.9437062058977282e+159   3.1294720444675556e+159   8.5259056011810611e+159   1.2275833645471281e+159   -1.2731004776112565e+159   3.2854211189689198e+159   5.5080171428411122e+158   1.1233269824601743e+159   3.2241551664661502e+159   2.9743200526165848e+159   -2.0110056584147122e+160   7.4829135190012523e+159   5.8355160563318977e+159   2.5961121556417802e+160   -3.9686623184849643e+159   1.2104913589942981e+160   2.0810465153561660e+160   1.4924827021180929e+160   -1.3151742379984724e+160   1.2808266830671137e+160   2.9915995431208740e+158   5.3258965719991897e+159   -1.6174756720283899e+160   1.2801328608547105e+160   4.0618589810730372e+159   -4.3402565540313703e+159   1.2708235649348608e+159   5.5175716942387875e+159   2.5691047393226114e+159   6.8967603332057242e+158   4.8387212642071482e+159   -9.5834689173574920e+158   -3.0599073094641436e+159   2.9107441824922694e+160   2.3610551621914486e+160   -5.6414108714661021e+159   -9.4939345217799148e+159   1.1744704134090881e+160   -5.6126752409577131e+159   8.6389156695323816e+159   1.6697417655241818e+160   6.7820251387221308e+159   6.3264411220555739e+159   5.0971823576920094e+159   1.9748509916665302e+159   -6.0928798300929455e+159   1.2741641413933151e+159   7.4851879003427048e+159   1.1760555682954439e+160   2.7738967988604745e+160   -1.4694348428556541e+159   3.3544152499772098e+160   1.4152151702460599e+160   1.4363553370255207e+160   -4.2655935577787686e+158   -1.4598601022686446e+160   -5.9894436400516512e+159   9.1172644016306825e+159   -9.2501609416900664e+158   1.6974538140013574e+159   -1.0083415579874459e+160   2.6775307510455584e+160   -1.2012607398999092e+160   1.9286928334742065e+160   1.6473949522348325e+159   -7.3066354960033338e+158   1.4155495701346917e+159   -8.6187910215568146e+157   -6.8645362321585984e+159   1.1580679970504335e+159   6.4979498443544500e+159   -2.3862881540700669e+159   -1.6562612701641619e+160   -1.3053182762563350e+160   3.4613971521783783e+159   -1.4989239485947500e+159   -1.5498246144714829e+160   -1.3772880613447873e+160   -3.7077708241481671e+159   3.5390519001022132e+159   1.8527413785275603e+160   -7.9543836067514305e+159   -1.1170882200767175e+160   -8.8874330572708398e+159   -8.3312624770653113e+159   2.0598547246605668e+159   1.4752221629776719e+160   2.2232724338080266e+159   -1.8489797674726969e+159   2.3084334685435187e+160   -1.3226484871254118e+160   -3.6670570849630271e+159   2.1524801378900778e+159   -2.5248035982250351e+160   1.0343753069286648e+160   3.7841070675094277e+158   -9.8789277551071328e+159   1.0213355683480401e+160   1.5848609652775082e+159   -4.0780409034287153e+159   1.2952504481488090e+159   -1.4053171895582532e+160   -4.2758163252835606e+159   -2.2806240698158713e+160   -1.3381601831126034e+159   -3.9766737718903674e+159   3.1527656353304739e+159   -4.5374303197985399e+158   3.8751873094425237e+159   6.5139043026073424e+159   -5.6178902705084134e+159   9.2236039876852620e+158   1.3207258495410196e+160   -6.4372852279990105e+159   7.4507558646189881e+159   -2.9178883605553711e+159   -3.4375525486895253e+159   2.8998969530213537e+159   -1.0129477866092784e+160   1.2543537406183732e+159   5.4853909270896963e+160   -1.3947635078410226e+159   -6.6753423485518434e+159   2.8061932170752566e+160   -3.0968935883256757e+159   5.9429329487254144e+158   -2.8313294853793833e+159   2.4369534142686474e+157   -8.4662216365037259e+158   2.4796302629367577e+159   1.1669327896629234e+160   5.0629135190887055e+159   -3.2791046396758612e+160   -2.2256671525631619e+159   -1.1135765115067431e+160   -4.4675670242471059e+159   1.5284176142851371e+160   -6.0129345796040340e+159   2.1973293100585500e+160   -1.0573093273891436e+159   1.2085007272734721e+159   -4.7567590945530091e+159   1.2477051558206309e+160   2.3214048037873750e+159   -6.8249630039950593e+159   1.3875774044757783e+160   -2.6249221123217665e+158   8.1875903651427323e+159   4.4797245683762413e+159   -8.8925643729524346e+159   -1.9404517033185695e+160   -9.2103185233352092e+159   -1.9656749033030014e+160   -1.7752234827768412e+160   1.4016603613757902e+159   -8.4206364232344633e+158   -6.5628198295776301e+159   4.8743843977825937e+159   1.5630134646899425e+160   -4.7209674138055470e+160   -1.5998855969248873e+159   3.2956251951800939e+159   -7.2169183185917341e+159   -1.3374276428276408e+159   -1.2794300402094091e+159   2.8998176962964616e+159   7.7914714722437878e+159   2.9701906312436793e+160   -8.7268839592091469e+159   6.0635604245339825e+159   -6.4308864759070838e+159   4.4525017350523421e+159   4.7897888767448100e+159   -8.5941908183806686e+159   4.9705023925174464e+159   2.9878572367532025e+160   -2.9145325545909149e+159   -9.4858162397273151e+158   3.4455337421099932e+159   9.7605122867076856e+159   -7.6816047555791543e+159   -1.8897465926572815e+158   1.1827711103768002e+160   -1.0272027450392962e+160   -1.2873154891445219e+160   2.5627626719665845e+159   6.0330477609129522e+158   -3.4430074482341252e+160   -5.4273209996969124e+159   7.8690753055036574e+158   -3.8369519649376915e+159   2.5983777236696992e+159   6.3655190664804676e+158   1.9943612175620513e+160   -5.0972127272690316e+159   1.3984673199310603e+159   1.9145804996153926e+159   5.4382943721574315e+159   1.6621261273607898e+159   -2.5380558407688005e+159   -1.0348631435628259e+159   -2.5831547653279487e+159   -1.8364239224730396e+159   -3.9987839085309755e+159   5.8507686187776041e+159   1.7131258764430545e+159   -1.7732928313767732e+159   -2.6321442375012921e+159   -4.7461129907444723e+159   -1.0428087436854789e+159   1.0340128134696167e+160   3.4067863133400765e+159   -8.5835845987325985e+159   -1.8288569328882605e+160   -1.3416975733763845e+160   -8.3393961737869009e+159   1.9605282698447391e+159   -3.5966308764014268e+160   -7.6440155634402699e+159   -1.8018954219925045e+159   -5.3193703160933096e+159   1.7072530140864858e+159   3.0756182893856993e+160   -8.1860411636699170e+159   1.1415320742747901e+160   5.2168343018277439e+159   -5.9090177729601952e+159   -2.2102778652244377e+159   -7.8308951728967470e+158   -1.2339786212484471e+159   -7.5466164440095321e+159   -5.6150002328499542e+159   1.6797600300809328e+159   5.3235678215303022e+159   4.3466772208766846e+159   -4.1756239702522884e+159   -1.9751280003567281e+159   -2.5348930925243645e+158   2.2718768665761993e+160   1.6192545511535196e+160   3.2795953983466090e+160   -1.1705688462426457e+160   2.4973227788051622e+159   -1.0843570547973835e+160   -1.0227444688087616e+159   -3.5279964988870521e+159   -1.0632947048318537e+160   -3.1850950751296063e+159   1.0748429668860622e+160   -3.4886840553097406e+158   -1.9839734874360111e+160   2.0935845299150512e+160   -9.7779914383175845e+158   6.0857836946476856e+159   7.4946508937501530e+159   -1.6164671031369590e+160   3.3005613164264246e+160   1.8398924922189359e+159   -7.6696000943853658e+159   -2.1636114331727613e+158   -9.2038037181254255e+159   1.6009058701908213e+159   4.3026194292175387e+159   1.0380729058730989e+160   -2.0834486592867895e+159   -7.5812960456660399e+158   -2.4479028440099647e+160   4.4949686076564427e+159   1.4723104261173887e+160   2.7076375936946416e+159   -1.9123526318010501e+158   5.1132969433186182e+159   1.1099263852790530e+160   5.1092719677650714e+159   -1.7233248271631057e+160   -1.8038308243093589e+159   -4.0581144987121872e+160   -1.1110986914296441e+160   9.4457278694409895e+159   5.6320054117081191e+159   -5.4950653848361639e+159   -7.3705976943529484e+159   -1.3097940435321620e+159   -3.1723591823801927e+160   5.9452156578227037e+159   1.2486190566762570e+159   5.2338854910736276e+159   -1.0025149768308187e+160   1.8621916234979668e+159   -1.2289834590281682e+160   6.3020519198418557e+159   -8.6073710850086094e+159   -1.0512635738803896e+159   3.9236018937776762e+160   7.0041701467186466e+159   6.7560772721561836e+157   -1.5230448559285629e+158   -4.6572639819197874e+160   -7.1564292524188700e+159   -1.6007928162746597e+160   6.1076121776736385e+159   5.9823891337845596e+157   1.9129145673070668e+158   -1.0607609661260443e+159   5.3070441340426640e+159   7.4269835877860316e+159   1.7561046271395406e+160   -5.0821191248048089e+159   1.6768318740007023e+160   -3.6020058056462900e+159   9.8314848642384634e+158   -4.8185892679642138e+159   1.9290384212515946e+160   1.5115555211367426e+159   -3.3550067414768403e+158   1.6108875104907882e+159   -1.3701378972705825e+160   -3.9527375946298186e+160   1.6413585488981369e+160   3.4529691691820448e+160   -1.8904987496768999e+160   -5.3867695968177987e+159   -1.5181788761658353e+159   -8.2872994688294177e+159   1.1000348714705691e+160   -1.1163316389900067e+159   -7.3677771150036811e+159   8.5629175846583928e+158   1.5117398152790007e+159   8.7226277670303077e+157   -1.6598855415066796e+160   -3.7060777870260478e+159   -4.4352114572733396e+159   -9.6850756403612567e+158   -3.9095514351379145e+159   4.7208150427148317e+159   -6.8320810304086706e+159   -4.0555014878440592e+160   8.6433569053566631e+159   1.7220964606810353e+159   -1.8783322341521163e+160   -1.0697173530823008e+159   -1.0237521832913026e+160   -1.5463461955951153e+160   4.8868607746497971e+158   9.1939902581283237e+159   -5.4533953689508406e+159   1.0675230943438607e+160   -1.8138584448660699e+159   -1.3077047224691976e+159   6.3191604344089485e+159   1.0335655784874767e+159   -1.9475692094418830e+159   5.6473123175585143e+158   1.0354788115964226e+159   6.0801411139499519e+159   1.6358217536050724e+160   1.1303089958582398e+160   3.1692463455193321e+159   1.3626934557638220e+160   -3.2917415330577800e+159   1.2834602611343201e+160   -2.4943549782498628e+159   -1.0279968357822925e+159   6.1889383709145958e+158   -1.2864279263779160e+160   1.2737164208629079e+160   -5.8399690146010583e+159   -1.1743705208297240e+159   -1.1734951035449634e+160   5.7772181707688975e+159   2.2626979689330485e+159   2.6129841550742534e+158   2.9445831030148051e+159   -1.1146219294597647e+160   -5.4256721577551594e+159   4.1916905785344816e+159   -4.7877282865629316e+159   1.8485139038342631e+159   3.2317336398956930e+159   2.9243519988697227e+160   -3.7033870109033581e+159   -1.5956502611862118e+160   4.2537872949234467e+159   -8.5261598963896036e+158   5.9014845996420059e+159   -1.2622654732643465e+159   1.0395428590102745e+161   9.7136383329554942e+160   -2.2761599674401405e+159   9.7489349857607758e+158   -1.0946886405403460e+159   -5.1365647575442200e+158   3.4575074711286279e+159   2.7945222708353901e+160   1.1864601669590523e+160   -3.6068151259748661e+159   -1.2104383825473958e+156   6.6903160024863344e+158   1.8314714060481217e+160   8.1901505909551988e+159   8.9729950684400003e+159   -3.1621360192600079e+160   2.4067060451759839e+160   -1.5133112227585911e+160   9.9995459007799397e+159   1.7938101482715777e+160   -1.1208109886907421e+160   2.4427402299985041e+160   -1.2078104208438075e+160   -9.4354531220159707e+159   5.4527187398816484e+159   1.4329808286623469e+160   3.9518097275584895e+159   -6.8312628683068302e+159   2.2360281844639445e+160   -1.5980933813394317e+159   -1.5592430561832689e+159   2.3336110040327824e+160   -3.9084138681412888e+160   -1.7955303850343053e+160   9.5746109974784016e+159   -9.8055066210155991e+159   8.9762297511354466e+158   3.1218980225864258e+159   5.0644848178064776e+159   -2.6332776773323137e+160   -3.6717618143824307e+159   -1.3903245329209531e+159   2.7442780183618363e+160   6.1276878759153237e+159   -1.1728463333626467e+160   4.5612391109120313e+159   9.3206250902036649e+158   -5.6972341789323216e+159   -3.9881877327311946e+159   1.6620036142922252e+159   -1.1384290975071181e+158   -4.3625930503403852e+159   2.2519636096917238e+160   -2.2250601132670711e+160   7.6608233377142336e+159   7.4668363682890759e+159   -3.0732817352662407e+159   2.2134150542438602e+158   1.0897399923843815e+159   -1.7658263189156532e+160   4.4951000999088968e+159   -3.9709244915579500e+159   9.2763909450728851e+159   -1.0428274393219486e+159   3.4502109592823778e+159   1.3748933355922788e+159   -4.0241656584358711e+158   -8.1144160533553030e+158   -1.4263667543531165e+160   1.5160270890717083e+158   -7.4127896433415652e+159   -2.3241736717836755e+159   -7.0203423680946186e+159   2.7399135974562771e+159   1.6323060737918180e+160   2.1976114069925854e+159   9.5694233804917546e+158   -1.9118655020096135e+159   1.2086121639742470e+160   -1.1551755365707925e+160   -2.4639268754015441e+159   5.9882077011465684e+159   3.4318618713987713e+159   1.7448154241137427e+158   4.8784226350894589e+159   -1.1246623583965790e+159   -5.4814197766026610e+159   -3.7720530882796472e+159   2.8977596623395458e+159   -1.3745513678785462e+159   -8.0161779548839778e+158   -9.3520628038923944e+159   1.0819870851010109e+160   -5.1407518105376415e+159   -8.0481965495530758e+159   1.7583998086207206e+159   -2.9749126827899516e+159   8.2868074190768727e+159   -1.4573969831360883e+160   3.2923251388039227e+159   -4.6908813156413139e+158   -7.5432601877002248e+159   -3.4577797177060288e+159   -6.0163763067072643e+159   1.7137611261760118e+159   -9.2107262084381736e+159   -9.8715844883973307e+158   -6.1147422071756193e+160   -1.4057737878913676e+158   -3.1872831325650937e+159   8.0958359870021679e+158   -2.0451485696556814e+159   1.4627581391856319e+160   -1.0310528452333709e+160   1.8523297517408038e+159   -4.1550562909621324e+159   -8.4185423104226853e+158   -1.8727672557538635e+159   -8.6559347623953065e+158   5.3939426225875129e+158   -1.1866512493537882e+158   -7.0345896526202629e+159   2.2103612387549577e+159   1.3860954928496389e+159   1.3019503351474185e+159   -3.7688188849888000e+159   1.2366580139837447e+159   1.3142038707296568e+160   2.7640043049321459e+160   2.6811279886010391e+159   -3.7731860125249343e+159   -1.5642641192441365