<?xml version="1.0"?>
<VTKFile type="UnstructuredGrid"  version="0.1"  >
<UnstructuredGrid>
<Piece  NumberOfPoints="2534" NumberOfCells="4892">
<Points>
<DataArray  type="Float64"  NumberOfComponents="3"  format="ascii">0 3 0  0 -3 0  6 -3 0  6 3 0  3 -3 0  6 0 0  3 3 0  0 0 0  3 0 0  0 -1.5 0  1.5 -3 0  1.5 3 0  0 1.5 0  6 -1.5 0  4.5 -3 0  6 1.5 0  4.5 3 0  4.25 -1.25 0  1.75 1.25 0  2.25 -1.5 0  4.5 0.75 0  1.541666666666667 -0.2083333333333333 0  3.219827586206896 1.521551724137931 0  1.125 -1.875 0  4.875 1.875 0  0.8702651515151515 0.631628787878788 0  2.25 2.214285714285714 0  3.316176470588236 -1.904411764705882 0  5.214285714285714 -0.75 0  5.03125 -2.03125 0  0.96875 2.03125 0  4.041666666666667 -0.2083333333333333 0  0.8205128205128206 -0.9134615384615387 0  3.942582294752138 2.189194098250713 0  3.061487638533674 -0.968243819266837 0  2.192708333333333 0.4427083333333334 0  4.157850026972511 -2.182329047049442 0  2.331456616463011 -0.5285296485744057 0  3.654761904761905 0.5654761904761902 0  5.25 1.125 0  2.563673341677096 -2.280663329161452 0  5.126674107142857 0.1283482142857142 0  0.75 -3 0  0 -2.25 0  6 2.25 0  5.25 3 0  0.7680051888903191 -0.1384245958639337 0  1.617229471026718 -1.006949429867069 0  4.218940341429579 1.468686552856807 0  3.75 -3 0  2.25 -3 0  0.75 3 0  5.25 -3 0  6 -0.75 0  0 -0.75 0  0 0.75 0  2.25 3 0  6 -2.25 0  0 2.25 0  3.75 3 0  6 0.75 0  1.787573018358365 -2.279142327213878 0  3.195025188237337 2.273430909158844 0  2.528159645294386 1.151699106559287 0  1.041598427383826 1.322848427383826 0  1.520951704545454 0.4634232954545453 0  1.580357142857143 2.325892857142857 0  4.919642857142857 -1.361607142857143 0  4.54981623521892 -0.6483700862895494 0  2.99317863826574 0.6697091957925523 0  3.450169349029507 -0.4574865881858001 0  3.605016126014028 -1.323102984840902 0  2.745144658907412 1.882241931337371 0  0.4898065586600511 1.092777516238393 0  0.5 -1.875 0  1.217028489597945 -2.469323836800685 0  1.659912685567181 -1.604738056701542 0  5.4375 1.6875 0  5.34375 2.34375 0  4.52741779500503 2.384139265001677 0  3.375 -2.514804579549941 0  0.5446428571428571 -2.455357142857143 0  2.766554087216865 -1.745795909102064 0  4.525516559010988 0.1490283123570637 0  3.87554132162248 -0.8280516069565407 0  4.53622906132958 -1.76963146596888 0  0.4243951612903226 1.875 0  0.554851858345021 2.446861709948876 0  5.575604838709677 -1.875 0  5.445148141654979 -2.446861709948876 0  4.875 -2.575604838709677 0  1.440573466105381 1.721823466105381 0  2.193519495405082 1.631799415080963 0  5.472630128027442 -1.330813078900983 0  4.750126894286386 1.343813447143193 0  5.607142857142857 -0.375 0  2.625 2.607142857142857 0  0.3921763197810531 0.375 0  5.60901753622775 0.3750000000000001 0  1.125 2.613454943235572 0  3.701856738980915 1.163867513386733 0  3.736112850688509 1.696746876851408 0  3.519183195491339 0.06065128742606851 0  3.973620778217027 -1.693401606145563 0  0.8125 -1.444978632478633 0  1.256657745408029 -0.6381828923025001 0  0 -1.125 0  5.019997778514942 0.6475044429701156 0  4.125 3 0  1.285569332703024 0.8955310332120207 0  0 -0.375 0  0.4638922275641027 -0.5625 0  2.056635259780241 -0.07226025978024064 0  2.130475508371123 -1.000827820434028 0  2.677484372338113 -1.267299126394495 0  2.848680878891876 -0.4956836878192376 0  4.937901885089369 -0.3340245904575954 0  4.393563081308854 1.919544166973803 0  4.053859126323572 0.2813938488760716 0  1.181051704329518 0.1167440895674965 0  1.971354166666667 2.607142857142857 0  4.875 3 0  2.519350561152006 0.08093582719875507 0  3.139443301924015 -1.442524927271905 0  6 2.625 0  1.849169256239503 1.945480934753207 0  1.867196483071171 0.7892354369530077 0  1.192506522009051 -1.184888428863342 0  3.375 3 0  3.603234392481833 2.536866305538572 0  3.846752908916648 -2.537707634073423 0  2.014339897513945 -1.886932065281681 0  4.038392037966526 0.8363324773944992 0  4.421242701722609 -2.552534687860327 0  3.715389848650903 -2.108856956172843 0  2.985668138820625 1.127780908772207 0  0.4500794934449803 -1.173696061598557 0  3.366760888116476 0.8891914618875614 0  1.869163043700093 -0.6107175804171328 0  2.175114838273305 -2.53928723780967 0  3.014417665538299 -2.241523065744933 0  2.625 -3 0  2.819968145332426 -2.617202329573456 0  5.625 1.3125 0  5.563263538826679 0.814027077653358 0  5.625 3 0  2.550041671270923 0.7074928970804664 0  4.014583091741168 2.59891853892166 0  0.6440729668673318 1.499523832583132 0  5.219449799568244 -1.660557808485412 0  3.474012636702472 -0.9300738420779746 0  0.8125 -2.142857142857143 0  1.875 -3 0  4.945010515846405 2.554471797033147 0  2.611388969012422 -0.8478354915063726 0  3.223746055611014 0.3371683159691745 0  4.843939757110898 -0.9483610977948225 0  4.66556954816842 -2.220888354477256 0  4.125 -3 0  4.448108395110625 -0.2524000502731018 0  5.63671875 2.05078125 0  2.822484133964224 1.491327727709286 0  3.378213092764193 1.903125093887009 0  5.607142857142858 -0.9231200445788541 0  2.12639693023183 1.100450516019641 0  5.625 -3 0  0.375 3 0  0 2.625 0  6 -2.625 0  0.3931307155906299 -0.01856779822591927 0  0.8549199714190221 -0.5218333744252657 0  0.7651723094668359 0.253768144801553 0  1.421989550604507 -2.133299471886336 0  1.582611957351803 -2.615166692128227 0  4.420331038793115 1.133144382396504 0  0.375 -3 0  0 -2.625 0  5.078156723571596 1.54697017071479 0  1.877250715260938 -1.288801575378032 0  2.409169073010687 -1.916147168931784 0  1.146151077069952 -0.268000681695328 0  1.726784828652036 0.1335728643263411 0  2.745628549924675 0.3838821021397905 0  3.011490900297165 2.613625569196862 0  5.62463365164608 -4.137655439684362e-05 0  1.875 3 0  1.125 3 0  6 0.375 0  2.625 3 0  6 -1.125 0  6 -0.375 0  4.875 -3 0  6 -1.875 0  3.375 -3 0  1.125 -3 0  0 -1.875 0  0 0.375 0  0 1.125 0  0 1.875 0  6 1.125 0  6 1.875 0  4.813017731148975 0.9677363687196439 0  2.807371623148303 2.264962208227767 0  0.3692953377255688 0.7436406761680247 0  5.615625 2.615625 0  0.9395725521479794 0.9812935874921043 0  1.390920759130215 1.238984550166515 0  0.9588795022085095 1.672288500195331 0  0.87712392565124 -2.641031728267331 0  0.3665732993114588 -1.532068934251388 0  1.841944504733106 1.591700334213738 0  4.832970185136452 0.3385359233091246 0  4.169083540479082 -0.5746148619765254 0  5.281697083409333 -0.2046640461936881 0  4.072845380968044 1.784516523483641 0  1.293029195762321 -1.543079049035419 0  4.878733886054284 -1.720697370582964 0  3.609167475697567 -1.687579152754035 0  4.836981942878573 2.222259978217028 0  4.204938267037067 -0.9128589669335569 0  5.183079748175263 -1.111742407358677 0  1.469404041858679 2.654509729682302 0  1.22880920402559 2.273525645756405 0  4.566761045622856 -1.414165869120005 0  4.531680518427715 1.606803989975667 0  1.918929241273175 2.27471131819245 0  3.590183783343969 2.184680610175416 0  1.85683899811842 0.4533569963423589 0  1.173935704088662 0.4636872214645547 0  2.116602160898525 -2.207718541460878 0  4.51821874648995 -1.042568353750147 0  2.721551512787618 -0.1859357475290837 0  5.294921875 2.001953125 0  5.288671874999999 2.670703125 0  2.199940744527116 0.7756512213396931 0  4.090519467638897 1.163401080812838 0  2.298177083333333 2.670581371753247 0  2.484362362207526 -2.687319997637033 0  3.300530569898859 1.207053005217563 0  3.936078051808127 -1.362164062673065 0  5.341218841330105 0.5689885832563615 0  4.226314635599414 0.5638853401248238 0  2.524510956818563 1.635483567726497 0  0.3219546452225031 1.389066019009203 0  3.139061555368706 -0.3133905221155423 0  3.145569907612562 -0.6461828528638952 0  3.701427442033566 -0.2272880199383185 0  1.686782510365738 -1.934662341426927 0  2.427696494631844 1.944064773844184 0  3.901817839425732 1.422433381251312 0  2.356489883772755 -0.2025512972825912 0  4.820757576351118 -0.01647699434507374 0  3.064415631228375 1.809719380809516 0  4.643002705009462 2.69782572459795 0  4.31624250429496 2.728112685900672 0  1.520100694408069 -1.314302747998057 0  3.754559308601717 -0.5375020107416889 0  0.25 -2.0625 0  0.8125 -1.826636904761905 0  4.861738621091127 -0.6367294570749906 0  1.545149590740081 2.015832101819233 0  3.857113324620078 0.04127675193819436 0  0.3162874907704933 -0.864918315983958 0  4.21293081604216 2.352874368135467 0  3.123697687162562 -2.708090473740421 0  3.415275466010259 -2.202892416689829 0  3.601103065320932 -2.727566580522146 0  1.558629964945672 -0.5289921609136927 0  3.324859026263307 -1.198136798699183 0  2.424350759683917 -1.092246517929194 0  2.789248065239812 0.8954629970670158 0  0.8882026075771248 2.364936378889839 0  0.8066140242673685 2.679750706449505 0  4.504454978490482 0.4491616076730165 0  4.26881784709759 -0.009649566552704852 0  1.313479173834523 -2.758675889510418 0  1.120577805361368 -2.179971784090952 0  3.734048623985226 0.8602850349907256 0  3.527828882622877 1.432983527791925 0  1.959527908877504 -1.578124930685265 0  0.7602573574724077 1.220872343399509 0  0.6691217533356228 0.8531987603309893 0  1.877213035764122 -2.564340152892596 0  3.304349402914068 2.552016594979913 0  4.285565286275464 -1.569057178671076 0  4.227521511146333 -1.876903861267543 0  5.34375 1.40625 0  5.71875 1.59375 0  1.56245959534423 0.766197796710638 0  0.2458241530773257 2.4375 0  0.2794123857609179 2.138568368155198 0  5.754175846922674 -2.4375 0  5.720587614239082 -2.138568368155198 0  0.6472458227887359 2.124973059628837 0  5.124241021325378 -2.352544055105642 0  5.189172233440652 -2.675873509996353 0  5.364643151640443 -2.12768524739804 0  2.298896485720138 1.348573610321417 0  0.6008689899200503 -2.745193425346304 0  0.307092513690391 -2.651812055231556 0  0.2683745826107009 -2.363146293324415 0  0.5223214285714285 -2.165178571428571 0  0.5169611136983336 2.740349995819724 0  5.607469108596883 -2.699891746740618 0  2.138439274270545 1.947386893596098 0  1.25507379660067 1.953406658386351 0  4.135759889512124 -2.476847355718572 0  2.548249345531056 -1.538893887888457 0  2.771010284190282 -2.05339728351
[...]
<CellData  Scalars="f_26-2"> 
<DataArray  type="Float64"  Name="f_26-2"  format="ascii">6.8661431873020293e+18   -2.2415989557725360e+19   1.9925609033566450e+19   -7.3212696811993805e+18   -6.1979687690926653e+18   4.6470625695524960e+17   8.0208708709913979e+18   -3.9972315789652666e+17   -3.7717901391913304e+19   3.0607496628033940e+18   -5.3426657839637576e+18   1.7774306934167697e+19   -2.4321496701910122e+19   1.8233242842782566e+19   3.9504522347729568e+19   -9.3726969448785510e+18   -1.5335218977420700e+19   1.2572434988845586e+19   -6.9561190961038285e+18   1.8582374158609269e+19   1.4514130325484978e+19   -9.6450560323724247e+18   -2.6649390048876765e+19   -1.9452934704262578e+19   -6.7022368559537674e+18   -1.6919319801366020e+19   -6.9800078560117729e+18   1.3385789684448170e+19   3.8007017969418557e+18   -1.7592642999894305e+19   -1.6616264889703821e+19   -4.1034321170137571e+19   -1.4485554754668532e+19   -2.7059349234255819e+19   -1.5315702084155204e+19   8.9563031249705421e+18   2.0236872767774950e+18   -3.8827226718785828e+18   -2.4459979085134238e+19   1.0133862317924139e+19   6.8124884119486700e+18   6.5666389243246029e+18   3.2819265954308968e+19   3.3960994104542163e+19   7.4346672695970826e+18   2.3799477911679918e+19   2.2710034782670307e+19   -2.5400590632855851e+19   1.8499087910406771e+19   2.3239354464147370e+19   1.5403616415815633e+19   -1.0004724557820826e+18   -1.2769491844209844e+19   2.0809898594121204e+19   4.6043057776896758e+18   2.0736688460928238e+19   5.3311543029537290e+18   2.5227592959110480e+19   -2.9810587790579573e+19   -6.0209635635737334e+18   9.9652622645000581e+18   -4.2902420279123239e+19   -5.5512598712460872e+16   3.9383980385190600e+18   -1.5303682147514423e+19   -4.8750110441765868e+18   -5.1666037028478198e+19   -2.4200161062172697e+19   2.1850213227766571e+19   -1.3671582135048266e+19   1.7699861283480586e+19   -5.0870811572505487e+18   -2.3195064032085574e+19   -1.3524217424781650e+19   6.6690555247226808e+18   -7.9903646445792276e+18   6.9509506636333824e+18   1.4459483640022229e+19   -7.5218054882728100e+18   -2.9067265488609108e+19   -8.2149180725371474e+18   -1.6504798668654103e+18   7.5207917813730836e+18   2.5911785262666404e+19   -2.0811319863169114e+19   3.6504424196404748e+19   -8.1393276293477847e+18   -9.0065401528132291e+18   1.4990687333148285e+19   2.0209062499261288e+19   -2.7385921388221252e+19   -4.7241997566378476e+18   -2.2821449764178483e+17   9.3814540889122586e+17   -7.8929360510219899e+18   -1.4918498811965254e+19   -1.2818470166039132e+19   2.1810124321514844e+19   1.0513682166551632e+19   -1.9642649991421770e+18   2.6174676721556120e+19   1.5539537814569058e+19   -2.9020370605308646e+18   -2.8092115567167642e+18   -1.1889247680398074e+19   -3.7182909509427544e+19   -1.1699097992146414e+19   -5.0970444378931702e+18   3.0666557909384074e+18   9.5037584854927360e+18   1.4198477520168737e+18   9.4869943901275873e+18   -2.9263191850645975e+18   1.9748552985949596e+18   -6.0516520207464931e+19   -2.1821669940290204e+19   1.4731820836532621e+18   4.5128777542852214e+18   -4.1096147563703654e+18   -3.3104277815134794e+19   1.3820844042852614e+19   -9.2781886292198830e+18   1.3353880078687599e+19   -5.4171221535388088e+18   -5.9703695424995113e+18   -1.9086686834972156e+19   1.3028289982312110e+19   1.2544323927792847e+18   -4.5510687918000562e+19   -1.8428593657228257e+19   -1.2652837727229479e+19   -6.5141858403656919e+18   -2.5987624741055525e+19   -1.7554423864027247e+19   -1.2502761960605067e+19   -2.9825580339218483e+18   5.2725553139677573e+18   -3.7547386224831749e+18   -6.5869893540123863e+18   9.3533955486251971e+18   -3.6459548333862922e+18   1.4006176210435357e+19   3.2763361846937199e+19   2.8039394144977521e+18   -2.2188319343016391e+19   -3.3722751778609894e+18   7.6081423306138880e+18   -1.9370363733324050e+19   -1.7360363507619158e+19   1.0282675784612766e+19   -1.2048335958032486e+19   -1.4883225328212925e+18   1.3295384127672398e+19   8.8695192434373376e+18   1.3892481060849052e+19   8.1681975083639439e+18   1.3494847238833248e+19   -3.1183903203409715e+18   1.2388254092018465e+19   1.2444300875699847e+19   -4.4917445839976335e+18   3.1096145274827989e+19   3.5191702143566070e+19   -1.6458014774145403e+19   1.5060384111139025e+19   8.2825959156430633e+18   0.0000000000000000e+00   -1.9006755682009108e+19   -1.9011853900015763e+19   9.0593116911446925e+17   8.2298838965391859e+17   -1.0364828963638874e+19   -2.1501498374617494e+19   3.8008927291986719e+18   -1.2579111421101509e+19   -1.2451546886766779e+18   -4.4246810682095297e+19   -1.9632272651469152e+19   -2.6811738064617439e+19   3.1420097205591613e+18   4.2327116360993075e+18   -1.8329094266839986e+19   2.4508007488237486e+19   -9.1914217094998282e+18   -5.2066578986123366e+18   -3.4472646195897453e+17   -1.4224148045657911e+19   1.5645312012971248e+17   -2.0290213834593997e+19   5.1995035944740947e+17   -5.9675460584408033e+18   -3.2809788497751658e+19   -3.2937281335288918e+19   3.3817322655141802e+19   1.6642686131122100e+19   2.0190584172429099e+19   1.6508059116663357e+18   1.7370302273151582e+19   -1.5753215180520038e+19   -2.8375527232909737e+18   -1.3851102533173953e+19   -3.4855321580738504e+18   6.9923234848663798e+18   1.0925098320777046e+19   7.4632218367915715e+18   1.1331983910155717e+18   -4.2017501142432260e+19   -8.0200799610634970e+17   -4.0435234242338521e+19   -1.5859003875165655e+19   1.3372616759630791e+19   2.9838893192158859e+19   2.2012517367775995e+18   -1.0326099685626268e+19   2.2955810187951006e+19   5.0300894720512276e+18   1.1013510639943223e+19   1.0205708287675599e+19   3.0646627824965624e+19   -1.5282118449534689e+19   -2.7681040499562307e+18   -3.4130710170652979e+19   -2.5901780911334089e+19   8.0940561153537485e+18   -3.6702729585542897e+18   6.8133660581549056e+18   8.4753368483866122e+18   1.5694029619023684e+19   1.2612506029423362e+17   1.5813639124011969e+19   2.1316294854376567e+19   -2.5148124123138036e+19   -3.8451412767898968e+19   -1.0083685384464339e+19   -1.6613468135255853e+19   -1.1239836133693710e+19   1.7515781532563284e+19   8.7624052469476291e+18   -1.6649890706618780e+19   -8.0718056502708214e+18   -1.0111752121127520e+19   -3.3802021077856118e+18   8.1613790314825329e+18   4.1119306319628088e+18   -1.7410587900647623e+19   1.3103955834549596e+18   -2.7645458827621949e+19   5.3556901596030280e+18   -1.0089632394730160e+19   6.2018235640536556e+18   -1.2900029632716505e+19   -2.9403898929109926e+19   2.1324424302320819e+18   1.8767244626723631e+19   -2.5397867474009739e+19   -2.0763552307551629e+19   2.4332153094697124e+18   -4.7072862382993900e+19   -1.1436158804046236e+19   -8.9756461596195338e+18   1.9642831692851810e+19   1.4261044750200039e+19   1.8203621642309214e+19   9.3107908702306734e+18   3.4460847337792840e+19   2.5851769975966720e+19   2.8013691579574858e+19   -1.8173927880159570e+19   -4.3708942391657202e+19   1.2337023912689172e+19   1.2925506340078486e+19   -1.9802933831587009e+19   -1.7176904856916054e+19   -1.0516334360184078e+19   -1.0913989590744123e+19   -1.7514598833741722e+19   -1.3471147492404724e+19   1.6847161895803875e+19   5.7557671757323459e+18   2.0890544550075643e+18   3.2493021229062717e+18   -6.8461767209137920e+18   7.4813176889304422e+18   -6.1109275209497518e+18   -3.3366247440326406e+19   -1.0814618788303741e+19   -5.2463845531009065e+18   -1.9256809628606722e+19   -1.8155387141177723e+18   -1.8255477797172177e+19   1.0593720488865888e+19   2.9330790454894109e+19   3.8997709126289434e+18   1.3352260822066696e+19   -3.6065997017556816e+19   -2.0199091464204831e+18   2.2481998879465071e+19   1.3172863314518422e+19   -1.4321151369746307e+18   1.9444117648676569e+19   -6.5716703564435374e+19   3.9724626284011381e+19   -2.0315250304026513e+19   -8.7569271760208548e+18   -1.7733779403636519e+19   -1.9754768216503063e+19   -1.3262036814086316e+19   -1.3718454380387937e+18   -5.3672003263447020e+18   -7.5112171292774318e+18   1.3012073664940904e+19   -6.6188272681832489e+18   6.5406276240871178e+18   1.0791075027687436e+19   1.5266780547771771e+19   2.5999597707726537e+19   -8.1461518443864709e+18   -3.9215430185298874e+17   2.7533004721918623e+18   3.9916553834680950e+18   -5.2147076873140797e+18   -1.3450148942678680e+19   1.9323383793134158e+19   -2.6336206749003561e+18   -2.3858134173637067e+19   6.4592232542957957e+18   -2.7645268868111135e+19   -1.6060129796502890e+19   -3.6824267314853241e+19   3.5129457618676342e+18   7.4342637741779046e+18   1.3436042665034301e+19   3.4705423809120641e+19   7.6071518318896051e+17   3.3363384569330811e+18   5.6801844216050196e+18   -3.0301454909546246e+19   1.4806447089715761e+19   -4.8435180476030628e+18   2.2753977198753587e+18   6.4454278970301133e+18   2.3321282228752278e+19   1.2249975714523970e+19   2.4640288698623636e+18   2.2973404665130533e+19   -3.9156659255562060e+19   -2.5617909129197404e+19   -2.2420296166165864e+19   -5.8356679274098862e+18   -5.7359399271853240e+18   -2.2946750893237612e+18   -5.9775219397462815e+18   5.3998802470280243e+18   -8.3426381989727918e+18   -1.1749081083017931e+19   1.2591995649629436e+19   1.7175911768009445e+19   -1.2998236684337714e+17   4.0767805076381016e+19   1.0247269200886176e+19   1.6677889066108244e+19   -6.3795962678065024e+17   1.1238369453839360e+19   8.3574700145642834e+18   -4.5466282783513021e+18   -9.7754358307734589e+18   -1.0151021662168717e+19   8.0470990996024218e+18   7.2325791984856218e+18   1.3807212655878930e+18   -1.6784426209576655e+19   3.3616472990321324e+19   4.8409485958315121e+18   -7.1365605764590643e+17   1.5402020704960326e+19   -2.8408512087551164e+19   -5.5533400588109373e+19   -6.6445955866241116e+18   -5.6151590387753267e+18   4.1132677505825336e+18   1.9357103735812088e+19   3.3609944653485822e+19   1.2191898925704530e+19   1.5707950706641201e+19   7.8438423265788436e+18   -2.0504822124822213e+19   6.7250913726191770e+18   2.8261979498315940e+18   7.2858274318733783e+18   3.3133901950182231e+18   -1.4578644495990122e+17   -9.3060943011777802e+18   2.5877347266458239e+19   -8.3082905321203374e+18   -5.0969099366842890e+18   -9.2444607532593132e+18   -1.7777086980679789e+19   -1.3370432636775289e+19   7.8961948063484692e+18   1.4218967500738750e+19   2.2587480261118386e+19   6.8438644156595794e+18   -7.8659545693207972e+18   -1.3866810827013857e+19   1.4435440529418369e+19   -5.4151790343721984e+18   7.4119771327787786e+18   -2.9867770908803781e+19   -2.3646665513362817e+19   -6.1372790732873011e+18   9.4922282886107873e+18   -1.8286726399906591e+19   -3.9650350371348464e+19   1.2882802949321347e+19   5.9041765479773829e+18   1.3050079371319319e+19   -5.0589501313086444e+18   -1.3868350301567128e+19   7.9019238484046684e+18   -1.0900826370230497e+19   1.5413822563030694e+19   -1.8897454804606992e+19   -7.5810096557799035e+18   -1.6650651180983415e+19   1.4772793808213832e+19   2.2187659836305502e+19   2.1505556037394448e+19   -5.5446244413985734e+17   -1.5627394275600697e+19   -2.3670223212490125e+19   -1.7468385211088806e+19   -1.9593991331005567e+19   -5.2817021649290988e+18   -1.7805501309403607e+19   -4.6144852236787794e+19   -5.9879606661130988e+18   -1.0127626237827228e+19   -5.1494024154088776e+19   -2.7752074975258964e+19   -1.4489035621192894e+19   -2.8449436373662159e+19   -3.2907369504148345e+19   -8.4017879810794947e+18   6.3821109979666432e+17   -2.9968907321775514e+19   2.8282346766052745e+19   3.1278479503011333e+18   8.8230936178380902e+18   -2.5954132498654126e+19   2.2853620934406148e+19   -5.6543254601068851e+18   7.5365509163437760e+17   3.0026912637646295e+18   -2.7447663540483580e+19   3.8997370056383406e+18   6.5491517080248412e+18   -5.1600107906781583e+18   -1.2302684363846023e+19   -2.4608742652388876e+19   2.2098814963455980e+19   -1.8976218968646500e+18   -2.2307894005922319e+18   2.7975944698294092e+19   1.1130937928284256e+19   -4.0175063280561490e+18   1.3357195697772659e+19   7.8895711266861046e+18   4.9379071100616980e+18   -9.3514138729975296e+18   -3.3766727278823905e+18   -1.0768120829376311e+19   -6.6103501218137385e+18   -5.6513301922764810e+18   -1.8652684851846779e+19   -8.0144476360618568e+18   -1.7380494785620263e+19   -3.0702453427100140e+19   -2.0991538436894376e+19   -6.2499727851411988e+18   -1.6033989613241674e+19   -3.7185480509523010e+19   6.7936647028602921e+18   1.0938983134222703e+19   1.7673774583704896e+18   2.8252737552816701e+18   1.5811494920322473e+18   -8.8738553248274473e+18   8.4408500488839926e+18   -2.6690536287230878e+19   -1.6951178269103167e+19   -1.3146397101406253e+19   -1.0521066248461533e+19   -3.0809267869227102e+19   -1.3130039895313390e+19   -7.5727107115253084e+18   -1.0235670368209879e+19   -1.5466768274112258e+19   -1.7042531036524974e+19   -2.3437404348689371e+19   -3.7663289224725881e+19   -2.8961618773996970e+19   -4.3468255899547689e+18   -7.2474881852835758e+18   2.3895721809748460e+18   5.9667092217966387e+18   -3.5432544724494213e+19   -2.0568070113599291e+19   -2.2504115737373585e+19   -3.1338179802165359e+19   2.7643089628243758e+18   6.6776177402996060e+18   -1.5154248228898478e+19   -7.3662360036430909e+18   -3.7672143967780475e+18   1.9341530395320295e+19   -1.9710352796092682e+19   5.8980867423297126e+18   7.6593043362064302e+18   1.7279502771316302e+19   6.1012844526586655e+18   -2.8373920663709970e+19   -9.6822282473660375e+18   -1.2337222527855444e+19   -1.7095199245124508e+19   -1.5934689998397196e+19   -1.6829069875104012e+19   2.0019275985242399e+19   -3.0788631325420564e+19   5.5879592044289256e+16   1.6646068991745606e+19   2.7206058542077161e+19   2.0029139245952688e+19   4.3957286123952338e+18   1.4991350996199391e+19   -3.8571937396858030e+18   -2.1629014549686104e+19   -2.6325751194153759e+19   -2.1740986526754828e+19   -5.5888084818754339e+19   -1.7223566362751764e+19   -1.4087322178157422e+18   5.4362916841867133e+19   -1.0151681751709123e+19   -4.1006118199198572e+18   -5.3091843188963543e+18   -1.6518437809391434e+19   -3.1217824547877192e+19   -7.8863183041942094e+19   -1.6498330756817854e+19   -1.4641856532520320e+18   1.3433883355874572e+19   -1.9771036380535599e+19   -4.7235254524559213e+19   -3.4982245284333924e+19   1.7121321872841781e+19   1.1587133061685463e+19   -9.7446065508681830e+18   -5.1482305125293394e+18   -2.3183837685599953e+19   -2.6485678374639333e+19   1.6732014325727992e+19   2.0988100621584908e+19   3.1359784652935934e+19   3.4114268046506910e+19   -1.1204701363546829e+19   -3.1614480912680968e+19   -7.3191699097369098e+18   1.5152030904236769e+19   5.3194931437383977e+18   -1.2845566025147562e+19   -3.0760113752371130e+19   -1.3692257987312337e+19   3.3529157582168363e+19   3.8112757141368726e+19   2.4729722286606012e+19   1.2522046332517102e+19   -1.6260842566950044e+18   1.8729159164891203e+18   -1.5143204029937103e+19   -1.8192740782855596e+19   -2.2164282822207214e+19   -2.4184288645734126e+19   -3.3136088406340809e+19   -3.0503921136313299e+19   3.5325252747760787e+19   2.2462215688200897e+19   -1.1738114135230630e+19   -6.3185709230409472e+18   1.6603188763789351e+19   3.5582603369786118e+19   -1.4542406660802904e+19   1.0356555145392421e+19   1.6858583446071214e+18   2.7023831975874912e+19   -1.8267674236477735e+19   -7.3644228388900854e+18   3.6629691474505994e+18   -2.6837581299739582e+19   -1.5658055209288598e+19   -3.5096731933604178e+18   6.0048831892024525e+18   1.5536173982248522e+19   -8.5262326018409651e+17   -5.5846335925944289e+18   2.5940210433491272e+19   6.0579565915626691e+18   1.9871933053512978e+19   2.4446517805038686e+19   1.1766598499934192e+19   8.1088998028975370e+18   -2.5797043678019588e+19   -6.3293087737017149e+18   -1.7400026759529519e+19   -4.5702873428311187e+19   -2.5349372660616390e+17   1.9326596797871834e+18   -1.1028958724242190e+19   -4.8991311589374095e+18   2.5496343543406576e+19   3.2880295804003201e+19   -3.2396720238149747e+19   -1.8421935772498438e+19   5.5508885517062871e+18   -2.7353811224468042e+19   1.2573248528984982e+19   -1.7994067287525331e+19   2.4959611513954034e+19   5.1473247498339222e+19   1.8848896177242354e+19   -1.8438884858695473e+18   -1.8758269000698610e+19   -2.0757377432747262e+19   1.2843843387103658e+19   3.1183301902773809e+19   2.1771361262891213e+19   -1.9051262421218894e+19   8.3426899543929549e+17   1.8635998003166609e+19   -3.9836359429809485e+18   5.4403962634066534e+19   -1.4520297840433229e+18   3.1101356777195950e+19   1.8643363211314127e+19   -1.0561808908048933e+19   4.0500073144659118e+18   3.8268491662173230e+18   -3.2401329760345226e+18   1.5926563125658409e+18   -1.6830319590498707e+19   -2.0674977051856515e+19   4.5538420993891962e+17   -5.6087073018376673e+18   1.8130556172209114e+17   1.3572773556975684e+19   1.7045334238425897e+19   4.2553896719328748e+19   1.1634650102700714e+19   2.7286721968976601e+19   -9.0366970013778278e+17   1.3004810093618057e+19   -2.8336147650937160e+18   -2.6063525424376615e+19   -3.3938917107897274e+19   -2.4226645456150979e+19   -3.3520536419144331e+19   7.9497831760032691e+17   -8.7722618824546140e+18   4.0700667079927598e+18   1.4305221301607739e+19   4.9660699250826691e+18   1.1582798793007682e+19   2.8436105367639683e+19   -2.5669711057595580e+19   -9.8247798276123484e+18   1.1378676789601481e+19   1.5442452450768288e+19   -2.8481929325447101e+18   2.0567449961714929e+18   1.2753625460875561e+18   1.4809204354170468e+19   -1.6585768914362747e+18   -2.6373963252156462e+18   -8.7555159819255142e+17   -5.2331161880675615e+18   -9.4543330296909271e+18   1.9463586818661044e+19   -2.4380754899148681e+19   -1.3653577028922972e+19   1.2679574230187952e+19   -1.2171475421798670e+19   -7.9810519377038203e+18   1.9930181629836714e+19   8.5388155119712225e+18   4.8070657396557555e+17   -1.4156844429949903e+19   -2.1290563160737206e+19   1.0232136177955084e+19   -9.0227448278926019e+18   1.7778462208484319e+18   -8.3421435710204631e+18   -7.2527106818951808e+17   -1.4425217889355852e+19   2.8694072953486090e+19   2.6637408846496989e+19   -2.2597100331236729e+19   -2.4214979064656634e+19   -2.9790219483466168e+18   1.6572573601711716e+19   -7.9431194123661302e+18   7.9356958238511073e+18   -3.3060488672413934e+19   -1.2085220171111285e+19   -8.7123993537757379e+18   -9.9867239634164470e+18   8.9838781995165215e+18   9.8478907166137897e+18   -1.3663423886857904e+19   -1.7157337419211057e+19   -5.5087197537476480e+17   -3.0915804991038349e+19   1.8036001745863662e+19   1.6451983676525705e+19   -2.6635086922870854e+19   -1.8450941041757409e+19   -2.0041310127194481e+19   -8.7998527745140060e+18   -1.1225554135582920e+18   -6.3401646530844989e+18   -3.0378935882022183e+19   -4.5162675630401282e+19   -5.5749761853391985e+18   -1.6489820155082504e+19   5.1949104206515446e+18   -5.3637699513909903e+18   4.4874153686031544e+18   3.5571052255574266e+19   -5.9957141277032653e+19   -3.1383776871511134e+19   -1.9644778664110096e+19   -1.0889268672630047e+19   -2.0800828814195196e+19   -9.0606241490086164e+18   -6.3232391724676690e+18   -1.5680695207777841e+19   5.6758902181831250e+18   -1.3460680143340554e+19   1.7095798289293505e+19   5.7764132175600384e+17   -1.2601134368483557e+19   -3.0447681866558689e+19   -3.4480755815774122e+19   -2.0655555733666468e+19   -2.2621891399996596e+19   2.7304447011595248e+19   1.1414034233313970e+19   4.2747323357075973e+18   -5.1351329886717223e+19   -2.6296917894189027e+19   9.2829633115239731e+18   1.1796190125404227e+18   -1.0506230072490981e+19   -1.4176880595125571e+18   3.8910039658183398e+18   2.2591853170499838e+19   -1.6353539185882444e+19   -1.5222442730366075e+19   -3.2589274389622141e+19   -3.4171726267883856e+19   -1.4071120877249479e+19   -1.2865096222380636e+19   -2.4247538120810017e+19   -1.2630232482126547e+19   -2.3505565474636784e+19   -3.7017517433502093e+17   -7.6400411487340851e+18   -1.3939628464632527e+19   8.6779621033441649e+18   2.1068425377180180e+19   8.4401351492194796e+18   