<?xml version="1.0"?>
<VTKFile type="UnstructuredGrid"  version="0.1"  >
<UnstructuredGrid>
<Piece  NumberOfPoints="387" NumberOfCells="708">
<Points>
<DataArray  type="Float64"  NumberOfComponents="3"  format="ascii">0 3 0  0 -3 0  6 -3 0  6 3 0  3 -3 0  6 0 0  3 3 0  0 0 0  3 0 0  0 -1.5 0  1.5 -3 0  1.5 3 0  0 1.5 0  6 -1.5 0  4.5 -3 0  6 1.5 0  4.5 3 0  4.25 -1.25 0  1.75 1.25 0  2.25 -1.5 0  4.5 0.75 0  1.541666666666667 -0.2083333333333333 0  3.219827586206896 1.521551724137931 0  1.125 -1.875 0  4.875 1.875 0  0.8702651515151515 0.631628787878788 0  2.25 2.214285714285714 0  3.316176470588236 -1.904411764705882 0  5.214285714285714 -0.75 0  5.03125 -2.03125 0  0.96875 2.03125 0  4.041666666666667 -0.2083333333333333 0  0.8205128205128206 -0.9134615384615387 0  3.942582294752138 2.189194098250713 0  3.061487638533674 -0.968243819266837 0  2.192708333333333 0.4427083333333334 0  4.157850026972511 -2.182329047049442 0  2.331456616463011 -0.5285296485744057 0  3.654761904761905 0.5654761904761902 0  5.25 1.125 0  2.563673341677096 -2.280663329161452 0  5.126674107142857 0.1283482142857142 0  0.75 -3 0  0 -2.25 0  6 2.25 0  5.25 3 0  0.7680051888903191 -0.1384245958639337 0  1.617229471026718 -1.006949429867069 0  4.218940341429579 1.468686552856807 0  3.75 -3 0  2.25 -3 0  0.75 3 0  5.25 -3 0  6 -0.75 0  0 -0.75 0  0 0.75 0  2.25 3 0  6 -2.25 0  0 2.25 0  3.75 3 0  6 0.75 0  1.787573018358365 -2.279142327213878 0  3.195025188237337 2.273430909158844 0  2.528159645294386 1.151699106559287 0  1.041598427383826 1.322848427383826 0  1.520951704545454 0.4634232954545453 0  1.580357142857143 2.325892857142857 0  4.919642857142857 -1.361607142857143 0  4.54981623521892 -0.6483700862895494 0  2.99317863826574 0.6697091957925523 0  3.450169349029507 -0.4574865881858001 0  3.605016126014028 -1.323102984840902 0  2.745144658907412 1.882241931337371 0  0.4898065586600511 1.092777516238393 0  0.5 -1.875 0  1.217028489597945 -2.469323836800685 0  1.659912685567181 -1.604738056701542 0  5.4375 1.6875 0  5.34375 2.34375 0  4.52741779500503 2.384139265001677 0  3.375 -2.514804579549941 0  0.5446428571428571 -2.455357142857143 0  2.766554087216865 -1.745795909102064 0  4.525516559010988 0.1490283123570637 0  3.87554132162248 -0.8280516069565407 0  4.53622906132958 -1.76963146596888 0  0.4243951612903226 1.875 0  0.554851858345021 2.446861709948876 0  5.575604838709677 -1.875 0  5.445148141654979 -2.446861709948876 0  4.875 -2.575604838709677 0  1.440573466105381 1.721823466105381 0  2.193519495405082 1.631799415080963 0  5.472630128027442 -1.330813078900983 0  4.750126894286386 1.343813447143193 0  5.607142857142857 -0.375 0  2.625 2.607142857142857 0  0.3921763197810531 0.375 0  5.60901753622775 0.3750000000000001 0  1.125 2.613454943235572 0  3.701856738980915 1.163867513386733 0  3.736112850688509 1.696746876851408 0  3.519183195491339 0.06065128742606851 0  3.973620778217027 -1.693401606145563 0  0.8125 -1.444978632478633 0  1.256657745408029 -0.6381828923025001 0  0 -1.125 0  5.019997778514942 0.6475044429701156 0  4.125 3 0  1.285569332703024 0.8955310332120207 0  0 -0.375 0  0.4638922275641027 -0.5625 0  2.056635259780241 -0.07226025978024064 0  2.130475508371123 -1.000827820434028 0  2.677484372338113 -1.267299126394495 0  2.848680878891876 -0.4956836878192376 0  4.937901885089369 -0.3340245904575954 0  4.393563081308854 1.919544166973803 0  4.053859126323572 0.2813938488760716 0  1.181051704329518 0.1167440895674965 0  1.971354166666667 2.607142857142857 0  4.875 3 0  2.519350561152006 0.08093582719875507 0  3.139443301924015 -1.442524927271905 0  6 2.625 0  1.849169256239503 1.945480934753207 0  1.867196483071171 0.7892354369530077 0  1.192506522009051 -1.184888428863342 0  3.375 3 0  3.603234392481833 2.536866305538572 0  3.846752908916648 -2.537707634073423 0  2.014339897513945 -1.886932065281681 0  4.038392037966526 0.8363324773944992 0  4.421242701722609 -2.552534687860327 0  3.715389848650903 -2.108856956172843 0  2.985668138820625 1.127780908772207 0  0.4500794934449803 -1.173696061598557 0  3.366760888116476 0.8891914618875614 0  1.869163043700093 -0.6107175804171328 0  2.175114838273305 -2.53928723780967 0  3.014417665538299 -2.241523065744933 0  2.625 -3 0  2.819968145332426 -2.617202329573456 0  5.625 1.3125 0  5.563263538826679 0.814027077653358 0  5.625 3 0  2.550041671270923 0.7074928970804664 0  4.014583091741168 2.59891853892166 0  0.6440729668673318 1.499523832583132 0  5.219449799568244 -1.660557808485412 0  3.474012636702472 -0.9300738420779746 0  0.8125 -2.142857142857143 0  1.875 -3 0  4.945010515846405 2.554471797033147 0  2.611388969012422 -0.8478354915063726 0  3.223746055611014 0.3371683159691745 0  4.843939757110898 -0.9483610977948225 0  4.66556954816842 -2.220888354477256 0  4.125 -3 0  4.448108395110625 -0.2524000502731018 0  5.63671875 2.05078125 0  2.822484133964224 1.491327727709286 0  3.378213092764193 1.903125093887009 0  5.607142857142858 -0.9231200445788541 0  2.12639693023183 1.100450516019641 0  5.625 -3 0  0.375 3 0  0 2.625 0  6 -2.625 0  0.3931307155906299 -0.01856779822591927 0  0.7651723094668359 0.253768144801553 0  0.8549199714190221 -0.5218333744252657 0  1.421989550604507 -2.133299471886336 0  1.582611957351803 -2.615166692128227 0  4.420331038793115 1.133144382396504 0  0.375 -3 0  0 -2.625 0  5.078156723571596 1.54697017071479 0  1.877250715260938 -1.288801575378032 0  2.409169073010687 -1.916147168931784 0  1.146151077069952 -0.268000681695328 0  1.726784828652036 0.1335728643263411 0  2.745628549924675 0.3838821021397905 0  3.011490900297165 2.613625569196862 0  5.62463365164608 -4.137655439684362e-05 0  1.875 3 0  1.125 3 0  6 0.375 0  2.625 3 0  6 -1.125 0  6 -0.375 0  4.875 -3 0  6 -1.875 0  3.375 -3 0  1.125 -3 0  0 -1.875 0  0 0.375 0  0 1.125 0  0 1.875 0  6 1.125 0  6 1.875 0  4.813017731148975 0.9677363687196439 0  2.807371623148303 2.264962208227767 0  0.3692953377255688 0.7436406761680247 0  5.615625 2.615625 0  0.9395725521479794 0.9812935874921043 0  1.390920759130215 1.238984550166515 0  0.9588795022085095 1.672288500195331 0  0.87712392565124 -2.641031728267331 0  0.3665732993114588 -1.532068934251388 0  1.841944504733106 1.591700334213738 0  4.832970185136452 0.3385359233091246 0  4.169083540479082 -0.5746148619765254 0  5.281697083409333 -0.2046640461936881 0  4.072845380968044 1.784516523483641 0  1.293029195762321 -1.543079049035419 0  4.878733886054284 -1.720697370582964 0  3.609167475697567 -1.687579152754035 0  4.836981942878573 2.222259978217028 0  4.204938267037067 -0.9128589669335569 0  5.183079748175263 -1.111742407358677 0  1.22880920402559 2.273525645756405 0  1.469404041858679 2.654509729682302 0  4.566761045622856 -1.414165869120005 0  4.531680518427715 1.606803989975667 0  1.918929241273175 2.27471131819245 0  3.526908551984126 2.207147627530056 0  1.85683899811842 0.4533569963423589 0  1.173935704088662 0.4636872214645547 0  2.116602160898525 -2.207718541460878 0  4.51821874648995 -1.042568353750147 0  2.721551512787618 -0.1859357475290837 0  5.294921875 2.001953125 0  5.288671874999999 2.670703125 0  2.199940744527116 0.7756512213396931 0  4.090519467638897 1.163401080812838 0  2.298177083333333 2.670581371753247 0  2.484362362207526 -2.687319997637033 0  3.300530569898859 1.207053005217563 0  3.936078051808127 -1.362164062673065 0  5.341218841330105 0.5689885832563615 0  4.226314635599414 0.5638853401248238 0  2.524510956818563 1.635483567726497 0  0.3219546452225031 1.389066019009203 0  3.139061555368706 -0.3133905221155423 0  3.145569907612562 -0.6461828528638952 0  3.701427442033566 -0.2272880199383185 0  1.686782510365738 -1.934662341426927 0  2.427696494631844 1.944064773844184 0  3.901817839425732 1.422433381251312 0  2.356489883772755 -0.2025512972825912 0  4.820757576351118 -0.01647699434507374 0  3.064415631228375 1.809719380809516 0  4.643002705009462 2.69782572459795 0  4.31624250429496 2.728112685900672 0  1.520100694408069 -1.314302747998057 0  3.754559308601717 -0.5375020107416889 0  0.25 -2.0625 0  0.8125 -1.826636904761905 0  4.861738621091127 -0.6367294570749906 0  1.545149590740081 2.015832101819233 0  3.857113324620078 0.04127675193819436 0  0.2479605082936806 -0.9375 0  4.21293081604216 2.352874368135467 0  3.123697687162562 -2.708090473740421 0  3.415275466010259 -2.202892416689829 0  3.601103065320932 -2.727566580522146 0  1.558629964945672 -0.5289921609136927 0  3.324859026263307 -1.198136798699183 0  2.424350759683917 -1.092246517929194 0  2.746461744851735 0.9398108087856579 0  0.8882026075771248 2.364936378889839 0  0.8066140242673685 2.679750706449505 0  4.504454978490482 0.4491616076730165 0  4.26881784709759 -0.009649566552704852 0  1.3125 -2.75919801263958 0  1.120577805361368 -2.179971784090952 0  3.734048623985226 0.8602850349907256 0  3.527828882622877 1.432983527791925 0  1.959527908877504 -1.578124930685265 0  0.7602573574724077 1.220872343399509 0  0.6691217533356228 0.8531987603309893 0  1.877213035764122 -2.564340152892596 0  3.32172153715047 2.685939810104955 0  4.285565286275464 -1.569057178671076 0  4.227521511146333 -1.876903861267543 0  5.34375 1.40625 0  5.71875 1.59375 0  1.56245959534423 0.766197796710638 0  0.2458241530773257 2.4375 0  0.2794123857609179 2.138568368155198 0  5.754175846922674 -2.4375 0  5.720587614239082 -2.138568368155198 0  0.6472458227887359 2.124973059628837 0  5.124241021325378 -2.352544055105642 0  5.189172233440652 -2.675873509996353 0  5.364643151640443 -2.12768524739804 0  2.298896485720138 1.348573610321417 0  0.6008689899200503 -2.745193425346304 0  0.307092513690391 -2.651812055231556 0  0.2683745826107009 -2.363146293324415 0  0.5223214285714285 -2.165178571428571 0  0.3925308914031174 2.699891746740618 0  5.607469108596883 -2.699891746740618 0  2.138365140930822 1.917102089073091 0  1.25507379660067 1.953406658386351 0  4.135759889512124 -2.476847355718572 0  0.5330865684534913 -0.8980875812659357 0  2.548249345531056 -1.538893887888457 0  2.67686064875775
[...]
<CellData  Scalars="f_26-2"> 
<DataArray  type="Float64"  Name="f_26-2"  format="ascii">3.6164233298476408e+40   2.3156264926629392e+41   2.1128405749007820e+41   5.0933770659308036e+41   1.1118084861664054e+41   1.7552022783314494e+41   -8.6822614302898709e+40   5.9663815879175276e+40   -2.2303816249775780e+39   5.3594298357272631e+39   9.3042968243150370e+40   -1.9725659255014732e+41   -7.7262334761603710e+40   -1.7896146266907884e+41   -1.3211834833044725e+39   -4.5138953933649206e+40   -1.6151669156436646e+41   2.3295849049340028e+40   -3.6958752953368519e+40   -1.1261831680969072e+40   1.4246142987525847e+40   -6.2792673521288821e+40   -5.4478376163424080e+40   1.7718921029525076e+40   4.5148422709212233e+40   -1.7978417625255919e+40   2.8917227658111494e+41   3.9134213552354335e+40   5.0569504762918114e+40   -5.6811068211854483e+39   1.6800362487288644e+40   -9.7554209869906146e+40   -2.3802581732483958e+38   -1.7942040808171831e+41   1.3284035774790755e+41   1.2525840678587631e+41   -3.8821966065195606e+39   1.1087830081562036e+40   -1.4324060226434450e+41   3.3629417912619767e+40   6.5511069742825768e+40   -3.2903643245532899e+39   -9.4970751345579210e+40   -1.0256288646950440e+41   -3.1026242133452906e+41   -1.4060476152479010e+41   -1.2418192939509522e+41   -3.9068004355523536e+42   2.1415913013653284e+41   -1.7652308849527663e+41   1.8681240348431314e+41   -2.8790333407217275e+41   1.6761888512202114e+41   3.3184318586243104e+40   1.3785380368619443e+41   1.2172938721652844e+41   -2.2054589147504294e+41   -1.0003624842171888e+41   -5.7079200388439958e+39   -6.8636815675023947e+39   9.9892881031531506e+39   1.5761213327265834e+40   -9.6551213340746648e+39   -3.3829278016897225e+40   6.6759944592019646e+41   -1.2393259887682420e+42   8.9033287176661508e+39   -5.0074090502541193e+41   -2.7936831613215150e+40   7.2891044825828673e+40   -3.5042820363832941e+40   -1.3795646959108758e+41   4.6001923786130789e+40   5.4129879778956229e+40   -2.4805427885228654e+40   -7.1096700101588442e+40   1.7910014733562250e+41   1.0692758010466521e+40   -5.9604003743058427e+40   -1.1977229717987207e+39   -1.2079978173338651e+40   -6.7997298715007663e+39   -1.3255333118509281e+40   2.8214220381756698e+40   2.4069291811121578e+40   4.6276677657616391e+40   -1.7790533012267402e+40   3.7843757980234956e+39   -2.4918686377827580e+40   -4.6261462118226227e+40   1.1669995954321956e+40   -8.9233169948208645e+40   -3.3837852083148007e+40   7.6768781752307341e+39   2.2387431768438198e+40   1.9051087263720736e+40   -3.8121821912565873e+40   -5.4374962416738797e+40   -2.9871221609803621e+42   1.3239551990062125e+41   1.2141338624601295e+41   3.8421709920029230e+41   1.3469469998406376e+41   1.8026602845941426e+41   -5.3716314747211371e+40   -2.7187603145107000e+41   4.7142356038973428e+42   -7.3388623677300246e+40   -1.1468601297366130e+41   5.1635256987759817e+40   8.2854010767240061e+40   -8.3345495496223118e+40   -7.0091436993805362e+40   -2.2592799423562438e+40   -1.7040639058751381e+40   5.2464350301070454e+39   3.3200765961759755e+39   -4.3714133225068610e+40   -1.0501613449495667e+40   8.9867468705827589e+39   3.7568210104614048e+40   -3.6443379934209504e+39   -5.5353317226865356e+40   9.1401463370976726e+39   2.5828193611666894e+39   -3.7717631874348985e+39   -7.5202598095002125e+39   7.7811799182537519e+41   -1.0471272730413118e+39   -1.3105903422395716e+41   -2.5072957077437736e+41   6.1298598907265010e+40   4.8772159628245899e+41   -3.3805115016438456e+40   -4.8361629216502672e+40   -5.8975049970510408e+40   1.0844471336658532e+42   3.4388057512637378e+41   -5.8194830882577088e+40   -9.6162381093380760e+40   -8.1519901465470884e+40   -9.2954193868645865e+40   -6.5683652555186129e+40   -2.5126061555651022e+40   8.0821438114012334e+39   -1.7479363515354411e+39   2.3667745931265586e+41   1.1455084330172163e+41   3.0403848950496304e+39   1.1589033768948000e+41   -1.2091730342003346e+41   -3.1572611030995358e+41   -7.1412361684251782e+40   -1.1546995362912308e+41   2.3030847280128468e+39   -8.8858433325594033e+39   3.3315369686891509e+40   3.8681934019700972e+39   -1.4853847734957402e+42   -2.2627322278577994e+41   -2.1909817301396945e+42   7.6352839948321611e+40   4.0765121671367727e+40   5.6476999691533621e+40   6.2299936805320445e+40   5.2390901404255125e+40   4.6468589394471514e+40   7.9129637235467430e+40   1.7709987655635897e+40   9.3466350286625325e+39   -4.5958661934499243e+40   -5.8521566247469343e+40   -2.7572400445608371e+41   -2.9225041557087848e+41   -5.6268520650913862e+40   -3.0678877951377457e+40   6.7442704649897551e+40   1.1095310071537923e+41   7.6784804321655583e+40   3.8136203111881887e+41   2.1998973732977454e+42   3.7224256035003673e+41   5.8595230058627034e+39   -1.0291485599778570e+40   1.2801991178505916e+40   3.6695307137848288e+40   7.9590211770229936e+40   -2.1406878055888967e+41   -1.6221078047906310e+40   -4.1732913741018417e+39   -2.4738630271791918e+40   -2.3184251761235486e+39   1.3448552776130068e+41   1.5803681591798052e+41   9.5019642854667358e+40   1.2185648525661817e+41   1.5727255045066818e+42   2.7245453912421630e+41   1.1016308279342955e+40   9.8146763202102667e+40   1.0372693672772969e+41   -9.4579094929122317e+40   -1.1184838145415582e+41   -1.2275141379768227e+41   -6.9358432240867052e+40   6.1548399913051893e+39   1.4297643143201037e+40   -4.9067285827352212e+40   -3.3665333974994393e+40   5.9004606902677931e+40   1.2448221577766276e+41   -4.4603906547844491e+40   -4.3136990859553814e+40   5.5376225777657379e+40   7.5557484459328730e+40   -2.7904446683087597e+40   4.8220960498295047e+40   3.5999964678443560e+40   -1.3540420597589987e+41   -8.7134862567434771e+40   -6.9454459121833644e+41   -1.1021853686290077e+42   2.5061699186525473e+42   2.0169918866764728e+42   -2.5327550093710688e+40   3.2333910130711094e+42   3.2850389926957251e+42   -3.3799572655941186e+39   -1.4833301371987872e+40   2.9375608954100414e+42   1.4308017659620289e+42   -4.2263465381300047e+40   1.1144513040672766e+40   6.6767489619160509e+38   5.9296609795913947e+39   2.6435397673223465e+40   2.8977053889081249e+40   4.4616286966762491e+41   -6.9107027234068380e+40   -1.7008664973638744e+42   -3.1243979148252605e+42   -3.6584061037590770e+41   -4.0412146188516465e+41   9.5540734649728083e+40   7.3277366568805716e+40   -3.4009009943432311e+40   3.2370495990007174e+39   -3.3363039735199990e+39   -2.1032423965245952e+40   -4.5537402613193116e+39   1.5842091431638161e+39   -4.9907682775138200e+41   -5.1433250828811559e+40   -5.0897717601032827e+40   -1.9907136767380552e+40   2.6887968946556629e+42   -1.2124895165648713e+40   -3.4853321269801832e+40   -4.1178296081616844e+40   -6.5182515242741237e+40   2.9441460847193761e+40   -3.8341852288954517e+40   -1.8602540527501426e+40   6.4023200429598921e+39   -8.3145177798846668e+40   -2.0032094753822457e+41   -3.4398103379878204e+40   1.4627610482746414e+41   -3.0157552997973960e+40   -4.8697628712348465e+40   -6.1645824603234923e+40   1.4031598732916892e+40   -7.8278938667478280e+41   -2.4835782345785582e+40   4.3474532053665074e+40   3.6381718508821639e+40   -2.6166878369169572e+41   7.6664973503464034e+40   2.1805831695771891e+41   3.0096129225606445e+41   -7.9777098915989708e+41   -5.8803215134929563e+40   -1.2551584582765586e+41   -1.2169018036364753e+41   -7.0834092061782959e+42   -3.0910361588010015e+42   -6.8901141436828022e+42   -4.0763268457105739e+41   -1.0100686467342703e+41   -3.6739477214695969e+41   1.5314886938708385e+41   2.0959185133097709e+41   5.6827307602975431e+40   4.4661417332468977e+40   8.7624235220400602e+40   4.2810168165528445e+40   4.3247694098152456e+40   5.6450227729415870e+40   -7.4830841924502292e+39   -1.7518874781556973e+40   1.2029672994102725e+42   5.4383054819844285e+41   1.2178081052608204e+40   1.4985476791513631e+42   9.6072671691299227e+40   6.1246136740825728e+41   1.1005021442730958e+41   1.4973888241518334e+41   7.6492877572368064e+41   2.0510767402507262e+42   6.0915638086719661e+40   1.1806107000075358e+42   1.1711316450891124e+41   3.0766397502531463e+41   6.0899464057091662e+41   5.2621103253781537e+41   -1.3971738884536922e+41   -9.4693952843776257e+41   5.2870156256010687e+40   9.0632483777874001e+40   -1.4061981717125494e+40   -6.2937802575029068e+41   -3.0598545369497067e+41   -5.7672826603870309e+42   -1.1929133182975764e+42   -1.3869591725053390e+42   -1.3306343446462372e+42   -1.7178100450205906e+41   -3.4087677150706558e+40   -3.4903715302261932e+41   -6.5098408920929421e+40   -1.1308390150718544e+41   1.1202487118656710e+42   2.6513787332529291e+42   2.5853491696864007e+42   1.2951085926505351e+42   -1.7074774994103324e+41   -1.4360531150757227e+41   -2.8912717832904743e+40   -2.6134762186218892e+40   -9.5987929518525099e+41   -4.4913349207389523e+41   3.8550284530083043e+42   1.9169764057740061e+42   2.4155635293246952e+40   9.3533175906755531e+39   2.9135281426488533e+39   4.4602477949039140e+39   7.1892026495888119e+39   6.0539168503641578e+39   -3.2593723888394847e+42   -1.5195102605947186e+42   -1.9657499821533128e+42   -9.5488551158102221e+41   -1.0005062450697228e+40   -1.2488955590612225e+40   -8.2319864510729955e+40   -5.8284575553433935e+40   -3.2308949241032478e+40   -3.8155172095865784e+40   5.1822846089463833e+40   -3.1854292662980895e+40   -9.2677402195771155e+40   -1.5845110147305069e+41   2.4555981255145206e+41   3.2698832332442636e+41   -6.9110962371053718e+39   1.8167903396766109e+39   3.0735438351884756e+40   3.4237208393629512e+40   -3.1732378809633550e+41   -3.4072736766546146e+41   -1.6880689838666099e+40   6.6413175400107427e+39   -3.8733279708685266e+40   -2.3539724394175908e+40   8.7296432084154600e+39   -1.3153329552577021e+40   7.9807451363995219e+41   3.0424916413836462e+41   -7.8731045969194334e+39   -1.0135865088224337e+40   -1.8859211863023526e+41   -1.9993023928711639e+41   -2.2439310614427995e+39   2.2832268149779439e+40   -7.9186047822383608e+40   -3.5618710912116953e+40   3.5444743616251383e+40   2.5443273554733183e+40   1.1438423917902207e+40   2.4706649137650377e+40   1.1476472619078447e+41   -8.2151813296325116e+41   -9.4617158886547105e+39   -2.3227054968562242e+40   3.0900785135834120e+40   1.7614021941865836e+40   -3.1270006307452421e+41   -2.7322055733250069e+41   1.7826253717804846e+42   3.5981624511247716e+42   1.3527076517975859e+40   2.4421081164094237e+39   -1.4349194813573267e+41   -1.1401245726638272e+41   3.9134856775928303e+41   6.8978488671467708e+41   -1.8590123711294256e+42   -1.3895614830664131e+42   -6.9901731750057043e+40   -8.2799038590230807e+40   1.3791689811265881e+40   2.2534219486874478e+40   -6.8065551221634390e+40   -2.8373464848426787e+40   -9.1513710254688998e+40   -1.0092540117236350e+41   -9.5596302330994696e+39   -2.0604873228472145e+40   -6.2970939001601516e+41   -1.3977866836330886e+41   -1.1306377024542653e+40   -1.4863170547466100e+38   1.7910486214643202e+40   1.1070458515343447e+40   -2.4272877529958179e+40   -2.3386331488972427e+40   1.5662349189581653e+41   1.5939389021374539e+41   -2.2852089029705283e+40   -5.5103209794849374e+39   -1.2914518009295222e+41   -1.0540529596895245e+41   3.2355294003488760e+40   4.8197848869035687e+40   -7.0408219568220540e+40   -7.3887868090154681e+40   -4.4243534263558988e+40   -5.0659778881803304e+40   1.2935028769347794e+41   1.8983979524357037e+41   2.5344086141684426e+42   1.0829462808347031e+42   1.7694693015741238e+41   1.6532605116051308e+41   4.2905783181115268e+39   -6.6458298402278728e+38   -2.5654134916086475e+41   -9.6745623029934460e+40   4.3684961375443057e+41   4.2858029003875897e+41   -3.8902109003750863e+40   -4.6916313006741774e+40   9.6173017487985272e+39   9.2323688442723093e+39   -5.6465967098956132e+40   -4.1085536753484422e+40   -1.8598450156270603e+41   -8.2907893468458672e+41   -2.0045218358211830e+41   -2.2804293923785015e+41   -1.0579961381235672e+42   -1.7261692864352887e+41   2.7800647857648487e+40   -1.6291203563978748e+40   -5.0350784820670630e+41   -9.4818182691915642e+41   8.7363922392742857e+40   9.8966810005304069e+40   4.9716322428635126e+40   3.6944468368269935e+40   1.2899742325592669e+41   9.0427083518658419e+40   -3.5048683664925188e+40   -2.1659348723810336e+40   2.1808859587589189e+40   5.4891687896307702e+39   1.5059171873575210e+40   -1.5446209639566947e+40   -8.7805824902623386e+40   -1.0452519423788292e+41   -5.3849181110607917e+40   -5.6317034923152083e+40   -1.2985092307936259e+42   -2.3724734913121833e+41   3.1775791924423386e+41   3.7029320724893494e+41   -7.5616079579962949e+40   -6.9591704210457870e+40   -6.8294727234891949e+40   -7.8680537403451730e+40   1.4421891671218908e+41   1.6378721240840890e+41   1.4769667342102067e+40   1.1515938209315200e+40   8.7080352790413740e+39   -5.7221210753318378e+39   -3.8451341441903046e+40   2.4484314648555922e+40   2.0871190795294167e+42   9.1412507831027012e+41   3.4814045205782627e+39   -2.8653082179786157e+39   -2.7277739848117009e+39   2.0532208087170484e+39   -2.3089151964112785e+41   -1.9360478674564230e+41   1.2723240605643313e+42   2.3481254091506563e+41   2.1791908164397359e+40   2.7714171100143581e+40   -2.1386999354684197e+40   -3.3223677056968331e+40   -2.4780091338370157e+41   -1.5633206132374472e+41   1.0246888054058995e+40   3.9923417304059880e+40   2.0672162862620627e+41   1.4056179474512556e+41   4.5565273882126335e+39   4.4110946807006903e+39   3.9662428802588414e+40   2.0633214729845775e+40   -1.1768553926078062e+40   1.8298864428102819e+40   3.6168362861331584e+40   6.0665245082541563e+40   -3.3361191070367503e+40   -2.6877180724576310e+40   -2.2207295989659985e+42   -9.8377774843418153e+40   -5.4632612898955962e+42   -3.0253189302837230e+42   -2.5679239682450098e+41   -2.3083547255802497e+42   5.4561645206067281e+41   4.2518586183116449e+41   5.0954983201659408e+40   3.2539721881524817e+40   -8.1797452418000417e+40   -1.2436668908032171e+41   -1.0163663187875217e+40   -1.2642559330270709e+40   4.8149658476605646e+39   5.8035969335048055e+39   -1.4889163378614917e+40   3.2123205815759235e+39   1.1722695911869107e+41   6.1887561327223199e+40   9.5508038966548644e+40   8.0561060070519671e+40   6.3489149326151846e+40   6.6166821007737436e+40   4.6596111337484497e+40   5.5608192351109693e+40   -2.2330952997539001e+40   5.0501287267548227e+39   -7.8367587261289102e+40   -6.8169788131583051e+40   -5.5429465690951465e+40   -6.1631666032009289e+40   4.9085232808599537e+40   5.4179793086596970e+40   -6.6692362343434892e+39   -7.1150939008313337e+38   1.6986648878188668e+41   4.0090036735349022e+41   -2.0206073639165704e+41   -5.5886808186666981e+41   -6.0727066507133349e+41   -1.9721021394641811e+41   4.4061536928804851e+41   9.6068254335005846e+40   6.8849554339749340e+40   1.7176084310750174e+42   2.3561602572331737e+41   2.8291535319130039e+41   6.1120419645067620e+39   3.7557357782189287e+39   -5.5438350926719082e+39   -1.3135766751180758e+39   -1.0963002635417101e+40   -1.4261801981463486e+39   -1.4123675940476952e+41   -1.3067667837313959e+41   2.2499459758939195e+40   3.5578688964380539e+39   9.4915894328774758e+39   1.6303293342511487e+40   -4.4597000109356549e+40   -3.6559980919951149e+40   1.1863954008443756e+41   5.5229372218599046e+40   5.1559224471932735e+38   5.4902587723987563e+39   1.3980898591010102e+40   1.6072193249667489e+40   -1.1658353146562148e+41   -1.3089648911305765e+41   1.3282863570990497e+41   1.3644448103219535e+41   -5.2468058251563761e+39   1.7769353398726369e+39   -8.1888135011501522e+41   -3.2625722304194765e+41   1.5493265646128083e+41   1.5179235989081353e+41   2.1076344821950273e+40   3.6913186236454897e+40   1.0072808305442943e+42   5.2082828603804584e+41   -4.2129042970615732e+41   -1.2635380718673442e+42   -6.4698308822877406e+40   -5.8243218971918786e+40   6.2775877019512051e+40   7.5597723079446256e+40   -2.6150578252043418e+41   -3.0128737106848647e+41   -2.2290983852520197e+41   -2.2959507859393890e+41   -1.4573195927223161e+39   -6.1798573140481101e+39   2.5959613402866462e+41   5.5546623141105776e+41   -1.6135908123440297e+40   7.1266341247285824e+39   -6.2068434391653409e+41   -2.0038416904253062e+41   -2.9193811155847333e+39   2.8107455740683080e+40   2.7708593928940855e+41   1.4640634815947682e+41   7.5723967602528738e+40   7.5713103449221267e+40   -4.6028586626041808e+41   -8.9972892530073803e+41   -2.7206323442561766e+41   -2.8842122218872325e+41   -3.6599765559635392e+41   -1.1280650058363415e+41   3.8647199179683205e+41   1.2073492024745146e+42   -1.2299466044304978e+40   -2.0109844056219028e+40   9.0117554497096364e+40   3.7410334737332599e+41   1.8888041601954227e+41   1.6954796820520564e+41   2.9905185243887667e+41   2.8507677511631315e+41   3.3369037931894125e+41   3.7727333461137658e+41   2.8912729143198512e+41   8.7433503902862704e+41   -1.4751927860353015e+41   -3.7438249034592252e+41   -6.4882920612735263e+41   -1.4883530217128510e+42   3.6436758784318917e+41   2.2196352462451028e+41   7.1922584703421618e+41   2.8697170820819175e+41   1.1666049964268182e+43   1.1580564819666594e+43   -9.5936455579000139e+40   -9.7824981495762676e+40   -9.0621222832888510e+40   -7.5398506628908477e+40   5.4527138939938838e+40   5.1644823627355056e+40   1.6926078363942914e+42   4.6298862023485959e+41   -2.2558301185245051e+41   -1.8266965695447545e+41   -1.9440451638754442e+39   -5.1357549089525069e+39   -4.0715308802672942e+40   2.9091533012482638e+39   -5.4393419387120184e+39   -1.6915119200334503e+40   -7.0595501010307817e+41   -2.8670246525032219e+41   5.4797403045030124e+41   4.1331063869256812e+41   -4.0193289711911991e+41   -3.8390970285555536e+41   3.4555431474190894e+40   2.4902473468656810e+40   5.3730862783075116e+40   4.2664674700780949e+40   2.2113372158482367e+39   5.3622098800313154e+39   3.1412882500544965e+40   2.5802794171355889e+40   1.4145536142004567e+41   1.5118902584906289e+41   1.1293388752400150e+41   1.2081080445665779e+41   1.1110492558947768e+41   1.0604381031828123e+41   8.6919796281677225e+40   1.0049094364686157e+41   -1.6601827768753688e+40   -1.5791557888195435e+40   -2.0107829786207165e+40   1.9188567984204081e+39   </DataArray> 
</CellData> 
</Piece>
</UnstructuredGrid>
</VTKFile>