<?xml version="1.0"?>
<VTKFile type="UnstructuredGrid"  version="0.1"  >
<UnstructuredGrid>
<Piece  NumberOfPoints="387" NumberOfCells="708">
<Points>
<DataArray  type="Float64"  NumberOfComponents="3"  format="ascii">0 3 0  0 -3 0  6 -3 0  6 3 0  3 -3 0  6 0 0  3 3 0  0 0 0  3 0 0  0 -1.5 0  1.5 -3 0  1.5 3 0  0 1.5 0  6 -1.5 0  4.5 -3 0  6 1.5 0  4.5 3 0  4.25 -1.25 0  1.75 1.25 0  2.25 -1.5 0  4.5 0.75 0  1.541666666666667 -0.2083333333333333 0  3.219827586206896 1.521551724137931 0  1.125 -1.875 0  4.875 1.875 0  0.8702651515151515 0.631628787878788 0  2.25 2.214285714285714 0  3.316176470588236 -1.904411764705882 0  5.214285714285714 -0.75 0  5.03125 -2.03125 0  0.96875 2.03125 0  4.041666666666667 -0.2083333333333333 0  0.8205128205128206 -0.9134615384615387 0  3.942582294752138 2.189194098250713 0  3.061487638533674 -0.968243819266837 0  2.192708333333333 0.4427083333333334 0  4.157850026972511 -2.182329047049442 0  2.331456616463011 -0.5285296485744057 0  3.654761904761905 0.5654761904761902 0  5.25 1.125 0  2.563673341677096 -2.280663329161452 0  5.126674107142857 0.1283482142857142 0  0.75 -3 0  0 -2.25 0  6 2.25 0  5.25 3 0  0.7680051888903191 -0.1384245958639337 0  1.617229471026718 -1.006949429867069 0  4.218940341429579 1.468686552856807 0  3.75 -3 0  2.25 -3 0  0.75 3 0  5.25 -3 0  6 -0.75 0  0 -0.75 0  0 0.75 0  2.25 3 0  6 -2.25 0  0 2.25 0  3.75 3 0  6 0.75 0  1.787573018358365 -2.279142327213878 0  3.195025188237337 2.273430909158844 0  2.528159645294386 1.151699106559287 0  1.041598427383826 1.322848427383826 0  1.520951704545454 0.4634232954545453 0  1.580357142857143 2.325892857142857 0  4.919642857142857 -1.361607142857143 0  4.54981623521892 -0.6483700862895494 0  2.99317863826574 0.6697091957925523 0  3.450169349029507 -0.4574865881858001 0  3.605016126014028 -1.323102984840902 0  2.745144658907412 1.882241931337371 0  0.4898065586600511 1.092777516238393 0  0.5 -1.875 0  1.217028489597945 -2.469323836800685 0  1.659912685567181 -1.604738056701542 0  5.4375 1.6875 0  5.34375 2.34375 0  4.52741779500503 2.384139265001677 0  3.375 -2.514804579549941 0  0.5446428571428571 -2.455357142857143 0  2.766554087216865 -1.745795909102064 0  4.525516559010988 0.1490283123570637 0  3.87554132162248 -0.8280516069565407 0  4.53622906132958 -1.76963146596888 0  0.4243951612903226 1.875 0  0.554851858345021 2.446861709948876 0  5.575604838709677 -1.875 0  5.445148141654979 -2.446861709948876 0  4.875 -2.575604838709677 0  1.440573466105381 1.721823466105381 0  2.193519495405082 1.631799415080963 0  5.472630128027442 -1.330813078900983 0  4.750126894286386 1.343813447143193 0  5.607142857142857 -0.375 0  2.625 2.607142857142857 0  0.3921763197810531 0.375 0  5.60901753622775 0.3750000000000001 0  1.125 2.613454943235572 0  3.701856738980915 1.163867513386733 0  3.736112850688509 1.696746876851408 0  3.519183195491339 0.06065128742606851 0  3.973620778217027 -1.693401606145563 0  0.8125 -1.444978632478633 0  1.256657745408029 -0.6381828923025001 0  0 -1.125 0  5.019997778514942 0.6475044429701156 0  4.125 3 0  1.285569332703024 0.8955310332120207 0  0 -0.375 0  0.4638922275641027 -0.5625 0  2.056635259780241 -0.07226025978024064 0  2.130475508371123 -1.000827820434028 0  2.677484372338113 -1.267299126394495 0  2.848680878891876 -0.4956836878192376 0  4.937901885089369 -0.3340245904575954 0  4.393563081308854 1.919544166973803 0  4.053859126323572 0.2813938488760716 0  1.181051704329518 0.1167440895674965 0  1.971354166666667 2.607142857142857 0  4.875 3 0  2.519350561152006 0.08093582719875507 0  3.139443301924015 -1.442524927271905 0  6 2.625 0  1.849169256239503 1.945480934753207 0  1.867196483071171 0.7892354369530077 0  1.192506522009051 -1.184888428863342 0  3.375 3 0  3.603234392481833 2.536866305538572 0  3.846752908916648 -2.537707634073423 0  2.014339897513945 -1.886932065281681 0  4.038392037966526 0.8363324773944992 0  4.421242701722609 -2.552534687860327 0  3.715389848650903 -2.108856956172843 0  2.985668138820625 1.127780908772207 0  0.4500794934449803 -1.173696061598557 0  3.366760888116476 0.8891914618875614 0  1.869163043700093 -0.6107175804171328 0  2.175114838273305 -2.53928723780967 0  3.014417665538299 -2.241523065744933 0  2.625 -3 0  2.819968145332426 -2.617202329573456 0  5.625 1.3125 0  5.563263538826679 0.814027077653358 0  5.625 3 0  2.550041671270923 0.7074928970804664 0  4.014583091741168 2.59891853892166 0  0.6440729668673318 1.499523832583132 0  5.219449799568244 -1.660557808485412 0  3.474012636702472 -0.9300738420779746 0  0.8125 -2.142857142857143 0  1.875 -3 0  4.945010515846405 2.554471797033147 0  2.611388969012422 -0.8478354915063726 0  3.223746055611014 0.3371683159691745 0  4.843939757110898 -0.9483610977948225 0  4.66556954816842 -2.220888354477256 0  4.125 -3 0  4.448108395110625 -0.2524000502731018 0  5.63671875 2.05078125 0  2.822484133964224 1.491327727709286 0  3.378213092764193 1.903125093887009 0  5.607142857142858 -0.9231200445788541 0  2.12639693023183 1.100450516019641 0  5.625 -3 0  0.375 3 0  0 2.625 0  6 -2.625 0  0.3931307155906299 -0.01856779822591927 0  0.7651723094668359 0.253768144801553 0  0.8549199714190221 -0.5218333744252657 0  1.421989550604507 -2.133299471886336 0  1.582611957351803 -2.615166692128227 0  4.420331038793115 1.133144382396504 0  0.375 -3 0  0 -2.625 0  5.078156723571596 1.54697017071479 0  1.877250715260938 -1.288801575378032 0  2.409169073010687 -1.916147168931784 0  1.146151077069952 -0.268000681695328 0  1.726784828652036 0.1335728643263411 0  2.745628549924675 0.3838821021397905 0  3.011490900297165 2.613625569196862 0  5.62463365164608 -4.137655439684362e-05 0  1.875 3 0  1.125 3 0  6 0.375 0  2.625 3 0  6 -1.125 0  6 -0.375 0  4.875 -3 0  6 -1.875 0  3.375 -3 0  1.125 -3 0  0 -1.875 0  0 0.375 0  0 1.125 0  0 1.875 0  6 1.125 0  6 1.875 0  4.813017731148975 0.9677363687196439 0  2.807371623148303 2.264962208227767 0  0.3692953377255688 0.7436406761680247 0  5.615625 2.615625 0  0.9395725521479794 0.9812935874921043 0  1.390920759130215 1.238984550166515 0  0.9588795022085095 1.672288500195331 0  0.87712392565124 -2.641031728267331 0  0.3665732993114588 -1.532068934251388 0  1.841944504733106 1.591700334213738 0  4.832970185136452 0.3385359233091246 0  4.169083540479082 -0.5746148619765254 0  5.281697083409333 -0.2046640461936881 0  4.072845380968044 1.784516523483641 0  1.293029195762321 -1.543079049035419 0  4.878733886054284 -1.720697370582964 0  3.609167475697567 -1.687579152754035 0  4.836981942878573 2.222259978217028 0  4.204938267037067 -0.9128589669335569 0  5.183079748175263 -1.111742407358677 0  1.22880920402559 2.273525645756405 0  1.469404041858679 2.654509729682302 0  4.566761045622856 -1.414165869120005 0  4.531680518427715 1.606803989975667 0  1.918929241273175 2.27471131819245 0  3.526908551984126 2.207147627530056 0  1.85683899811842 0.4533569963423589 0  1.173935704088662 0.4636872214645547 0  2.116602160898525 -2.207718541460878 0  4.51821874648995 -1.042568353750147 0  2.721551512787618 -0.1859357475290837 0  5.294921875 2.001953125 0  5.288671874999999 2.670703125 0  2.199940744527116 0.7756512213396931 0  4.090519467638897 1.163401080812838 0  2.298177083333333 2.670581371753247 0  2.484362362207526 -2.687319997637033 0  3.300530569898859 1.207053005217563 0  3.936078051808127 -1.362164062673065 0  5.341218841330105 0.5689885832563615 0  4.226314635599414 0.5638853401248238 0  2.524510956818563 1.635483567726497 0  0.3219546452225031 1.389066019009203 0  3.139061555368706 -0.3133905221155423 0  3.145569907612562 -0.6461828528638952 0  3.701427442033566 -0.2272880199383185 0  1.686782510365738 -1.934662341426927 0  2.427696494631844 1.944064773844184 0  3.901817839425732 1.422433381251312 0  2.356489883772755 -0.2025512972825912 0  4.820757576351118 -0.01647699434507374 0  3.064415631228375 1.809719380809516 0  4.643002705009462 2.69782572459795 0  4.31624250429496 2.728112685900672 0  1.520100694408069 -1.314302747998057 0  3.754559308601717 -0.5375020107416889 0  0.25 -2.0625 0  0.8125 -1.826636904761905 0  4.861738621091127 -0.6367294570749906 0  1.545149590740081 2.015832101819233 0  3.857113324620078 0.04127675193819436 0  0.2479605082936806 -0.9375 0  4.21293081604216 2.352874368135467 0  3.123697687162562 -2.708090473740421 0  3.415275466010259 -2.202892416689829 0  3.601103065320932 -2.727566580522146 0  1.558629964945672 -0.5289921609136927 0  3.324859026263307 -1.198136798699183 0  2.424350759683917 -1.092246517929194 0  2.746461744851735 0.9398108087856579 0  0.8882026075771248 2.364936378889839 0  0.8066140242673685 2.679750706449505 0  4.504454978490482 0.4491616076730165 0  4.26881784709759 -0.009649566552704852 0  1.3125 -2.75919801263958 0  1.120577805361368 -2.179971784090952 0  3.734048623985226 0.8602850349907256 0  3.527828882622877 1.432983527791925 0  1.959527908877504 -1.578124930685265 0  0.7602573574724077 1.220872343399509 0  0.6691217533356228 0.8531987603309893 0  1.877213035764122 -2.564340152892596 0  3.32172153715047 2.685939810104955 0  4.285565286275464 -1.569057178671076 0  4.227521511146333 -1.876903861267543 0  5.34375 1.40625 0  5.71875 1.59375 0  1.56245959534423 0.766197796710638 0  0.2458241530773257 2.4375 0  0.2794123857609179 2.138568368155198 0  5.754175846922674 -2.4375 0  5.720587614239082 -2.138568368155198 0  0.6472458227887359 2.124973059628837 0  5.124241021325378 -2.352544055105642 0  5.189172233440652 -2.675873509996353 0  5.364643151640443 -2.12768524739804 0  2.298896485720138 1.348573610321417 0  0.6008689899200503 -2.745193425346304 0  0.307092513690391 -2.651812055231556 0  0.2683745826107009 -2.363146293324415 0  0.5223214285714285 -2.165178571428571 0  0.3925308914031174 2.699891746740618 0  5.607469108596883 -2.699891746740618 0  2.138365140930822 1.917102089073091 0  1.25507379660067 1.953406658386351 0  4.135759889512124 -2.476847355718572 0  0.5330865684534913 -0.8980875812659357 0  2.548249345531056 -1.538893887888457 0  2.67686064875775
[...]
<CellData  Scalars="f_26-2"> 
<DataArray  type="Float64"  Name="f_26-2"  format="ascii">6.2837465814773477e+76   4.0235591270517129e+77   3.6712141411132574e+77   8.8501462889362029e+77   1.9318452013161251e+77   3.0498096820741812e+77   -1.5085619405112277e+77   1.0366879246544142e+77   -3.8909030379426756e+75   9.3089870218774449e+75   1.6166916971527291e+77   -3.4272934130145340e+77   -1.3423809023908586e+77   -3.1094348548666036e+77   -2.2949764915572788e+75   -7.8431695942526505e+76   -2.8063344252284927e+77   4.0479074233117371e+76   -6.4218087726586284e+76   -1.9568878921702680e+76   2.4750896797246373e+76   -1.0910434030607035e+77   -9.4658255394427782e+76   3.0783634324677537e+76   7.8448003104128049e+76   -3.1238728095251955e+76   5.0246460658287735e+77   6.7988098267674655e+76   8.7866321084049250e+76   -9.8751175902650776e+75   2.9183966841183769e+76   -1.6950017055186858e+77   -4.1525436059536011e+74   -3.1173767521105875e+77   2.3081895865581087e+77   2.1764616677760468e+77   -6.7460767999085288e+75   1.9262799521990275e+76   -2.4887529935956025e+77   5.8434235339420756e+76   1.1383189595724354e+77   -5.7168578843179948e+75   -1.6501288114918819e+77   -1.7820383827467998e+77   -5.3910027688871709e+77   -2.4430108894029432e+77   -2.1576569100494945e+77   -6.7882859628293269e+78   3.7211944768302811e+77   -3.0670405230804833e+77   3.2459235994431177e+77   -5.0022622694121167e+77   2.9124183364889772e+77   5.7658921201310208e+76   2.3953177292925541e+77   2.1151303752904859e+77   -3.8319430555850147e+77   -1.7381428450797496e+77   -9.9228397848753761e+75   -1.1924317220407036e+76   1.7336070913460199e+76   2.7368999647236822e+76   -1.6794152587856412e+76   -5.8782115047714769e+76   1.1599820596406759e+78   -2.1533738398789798e+78   1.5468399625246900e+76   -8.7005473909624096e+77   -4.8544921827580180e+76   1.2682129452208103e+77   -6.0892439994663998e+76   -2.3953099570737606e+77   7.9927903257704882e+76   9.4053589406732798e+76   -4.3096765615240629e+76   -1.2353090383632802e+77   3.1119882547488244e+77   1.8576159384225788e+76   -1.0355992739286960e+77   -2.0842305255559711e+75   -2.0991606678929924e+76   -1.1817751046376723e+76   -2.3032312324475297e+76   4.9022271930667195e+76   4.1818396835788040e+76   8.0401710786186176e+76   -3.0916859829936748e+76   6.5700600444052280e+75   -4.3299868615383314e+76   -8.0383671738077108e+76   2.0278090298428112e+76   -1.5504143889458192e+77   -5.8794133998121888e+76   1.3338534528838124e+76   3.8895875725438972e+76   3.3097539213438207e+76   -6.6236973865870472e+76   -9.4476976086651187e+76   -5.1902463638730218e+78   2.3004650186442339e+77   2.1096840110633105e+77   6.6760919463072031e+77   2.3404555866432501e+77   3.1322529186263131e+77   -9.3329549543664338e+76   -4.7237829779708548e+77   8.1908795329355382e+78   -1.2751581120797914e+77   -1.9927098411747173e+77   8.9718868345939505e+76   1.4396336268026297e+77   -1.4481321154407142e+77   -1.2178376744017927e+77   -3.9259234952775861e+76   -2.9610704067411028e+76   9.1075024095725645e+75   5.7635387489235014e+75   -7.5965632361597114e+76   -1.8260538237377142e+76   1.5594484320851292e+76   6.5272574584794628e+76   -6.3372491711059141e+75   -9.6165844145980910e+76   1.5873329395511191e+76   4.4838680158844007e+75   -6.5621394491319128e+75   -1.3075715052443590e+76   1.3520046613953056e+78   -1.8218500780863532e+75   -2.2771423824102685e+77   -4.3563924272608797e+77   1.0650769596862613e+77   8.4743931784319444e+77   -5.8737842297234263e+76   -8.4030544392036213e+76   -1.0246985191115519e+77   1.8842554022336958e+78   5.9760810639710111e+77   -1.0111574001028230e+77   -1.6708345809832196e+77   -1.4163920629475118e+77   -1.6150736747071728e+77   -1.1412540438527064e+77   -4.3656233892922908e+76   1.4036150974141170e+76   -3.0418659707755848e+75   4.1124436238290191e+77   1.9903969940691762e+77   5.2827553413854136e+75   2.0136687372497417e+77   -2.1009765538516411e+77   -5.4858635541465356e+77   -1.2407856897283149e+77   -2.0062875771688796e+77   4.0040609377574586e+75   -1.5434926280358482e+76   5.7884613459733023e+76   6.7166387477854286e+75   -2.5809120846570575e+78   -3.9315789960807181e+77   -3.8069133282435821e+78   1.3266708190603224e+77   7.0829476748700455e+76   9.8132328938740453e+76   1.0824919243247179e+77   9.1032517041893372e+76   8.0743329230511570e+76   1.3749326372550864e+77   3.0771373320417540e+76   1.6240262761050206e+76   -7.9855846094830713e+76   -1.0168342542520089e+77   -4.7906629104272071e+77   -5.0777633644838583e+77   -9.7766738587074528e+76   -5.3305426257069109e+76   1.1718448904244671e+77   1.9278738541095677e+77   1.3341763332582343e+77   6.6265749072287459e+77   3.8222793321575824e+78   6.4676513086092175e+77   1.0180341300907890e+76   -1.7882260729960294e+76   2.2238760533027686e+76   6.3761160573111999e+76   1.3828943939337476e+77   -3.7194023514739381e+77   -2.8192651926796980e+76   -7.2612088344790866e+75   -4.2985313824655956e+76   -4.0316589596485118e+75   2.3367696126911400e+77   2.7459892056118419e+77   1.6509977942012680e+77   2.1172892768836140e+77   2.7325893737177207e+78   4.7339242130148374e+77   1.9131716656356693e+76   1.7053558347463108e+77   1.8023187799411031e+77   -1.6433016315248286e+77   -1.9433596403250596e+77   -2.1327390021259175e+77   -1.2050947386832915e+77   1.0689353399604325e+76   2.4837051753882207e+76   -8.5256052301182107e+76   -5.8495623790313485e+76   1.0252566953964046e+77   2.1629531635826209e+77   -7.7499949256182622e+76   -7.4950600972647227e+76   9.6220142023943385e+76   1.3128660610900304e+77   -4.8484404706976280e+76   8.3784376288067033e+76   6.2552325770210495e+76   -2.3526996634196557e+77   -1.5139978555639940e+77   -1.2068040179090329e+78   -1.9150904968273679e+78   4.3545359234281913e+78   3.5045635710099523e+78   -4.4005117331205202e+76   5.6179802132661001e+78   5.7077315190107339e+78   -5.8753187766401530e+75   -2.5775100017498088e+76   5.1039444018574524e+78   2.4859887131645202e+78   -7.3435024758002637e+76   1.9358567013141850e+76   1.1509328759919966e+75   1.0289373832407830e+76   4.5932244177430244e+76   5.0347324990180168e+76   7.7524263691081095e+77   -1.2007270276332305e+77   -2.9553926857240257e+78   -5.4289053327268624e+78   -6.3564117192849570e+77   -7.0215410647368496e+77   1.6600892215545217e+77   1.2732376442712947e+77   -5.9089616030037952e+76   5.6254700429277089e+75   -5.8049414900917031e+75   -3.6546734391376871e+76   -7.9236351172553673e+75   2.7440036466425465e+75   -8.6710240451917719e+77   -8.9363608921842946e+76   -8.8435635733915295e+76   -3.4592791449510868e+76   4.6718075790385037e+78   -2.1069400898860320e+76   -6.0561049772364856e+76   -7.1547173751950573e+76   -1.1325498550164099e+77   5.1154634061304036e+76   -6.6621839397459508e+76   -3.2326713952202235e+76   1.1118097264027119e+76   -1.4407708550366332e+77   -3.4791522963651449e+77   -5.9377398821194423e+76   2.5430631122415962e+77   -5.2114524128998883e+76   -8.4511282493542657e+76   -1.0682711722572317e+77   2.4482046669596551e+76   -1.3601251631382439e+78   -4.3152858855417737e+76   7.5538636637248835e+76   6.3214306786759984e+76   -4.5465868536311241e+77   1.3321068975284317e+77   3.7889229774514806e+77   5.2294263340717683e+77   -1.3861857282385500e+78   -1.0217162414307373e+77   -2.1808456254624691e+77   -2.1143653587072692e+77   -1.2307921410632852e+79   -5.3709105180401584e+78   -1.1972083176003761e+79   -7.0829042674812061e+77   -1.7549798306658654e+77   -6.3834314317748520e+77   2.6610833869020208e+77   3.6418072610597588e+77   9.8741952978818192e+76   7.7600371572997719e+76   1.5225365347740984e+77   7.4384260386649302e+76   7.5144310469242324e+76   9.8085117239285096e+76   -1.3000718131078623e+76   -3.0438270958638062e+76   2.0901685047784647e+78   9.4491627739247313e+77   2.1159124593217439e+76   2.6037667647716931e+78   1.6693802640038224e+77   1.0642367371893301e+78   1.9126875529421473e+77   2.6022334052706885e+77   1.3290839866376901e+78   3.5638011222077124e+78   1.0584334342564865e+77   2.0513598236156654e+78   2.0348734206495339e+77   5.3458188820909082e+77   1.0581449733437162e+78   9.1430771916251607e+77   -2.4270963490679206e+77   -1.6451834227368530e+78   9.1859696963449576e+76   1.5752786388030945e+77   -2.4434653572394404e+76   -1.0935628356777934e+78   -5.3167414179783215e+77   -1.0021110070154580e+79   -2.0727490631481768e+78   -2.4099026223442905e+78   -2.3120275470135010e+78   -2.9847579447956633e+77   -5.9229420848649611e+76   -6.0645605438918346e+77   -1.1311164232259635e+77   -1.9643476708126159e+77   1.9464561811752538e+78   4.6068350504111668e+78   4.4920834821452959e+78   2.2502737395410192e+78   -2.9667186246392672e+77   -2.4951298223681389e+77   -5.0238321514016763e+76   -4.5410303846466127e+76   -1.6678233357989331e+78   -7.8038444380886692e+77   6.6981155940628037e+78   3.3307429147768414e+78   4.1968561317905002e+76   1.6247972817761523e+76   5.0541213814967219e+75   7.7406746657323339e+75   1.2478869311475313e+76   1.0502633340779149e+76   -5.6634286386181430e+78   -2.6402744258219432e+78   -3.4155804445840919e+78   -1.6591598025852918e+78   -1.7390006477212130e+76   -2.1703274882420608e+76   -1.4303129217260774e+77   -1.0127120777224311e+77   -5.6139777681091246e+76   -6.6297339605923985e+76   9.0043505850592400e+76   -5.5347372922982311e+76   -1.6102556750595196e+77   -2.7530648071202817e+77   4.2667938061162536e+77   5.6816760668618760e+77   -1.2023352997901829e+76   3.1431976765641140e+75   5.3400363880648882e+76   5.9485805301400286e+76   -5.5134205976619714e+77   -5.9200663460862733e+77   -2.9333792413601688e+76   1.1536811179720932e+76   -6.7303709898133931e+76   -4.0905712345948352e+76   1.5156893720285114e+76   -2.2862059324227294e+76   1.3868312735467056e+78   5.2871131643611669e+77   -1.3684641257379520e+76   -1.7615164958250815e+76   -3.2767555983587173e+77   -3.4737566333891116e+77   -3.9068903294355248e+75   3.9666324713641720e+76   -1.3758435708732974e+77   -6.1885832957637717e+76   6.1585890669707058e+76   4.4208533725117922e+76   1.9871894838550177e+76   4.2926516730526726e+76   1.9941405541414677e+77   -1.4274443994974967e+78   -1.6445639673886829e+76   -4.0362492079515641e+76   5.3692745826765249e+76   3.0605131685206024e+76   -5.4331218331987192e+77   -4.7471731225257139e+77   3.0972854121213034e+78   6.2517421073470695e+78   2.3501661353480370e+76   4.2413178603713002e+75   -2.4931544102271731e+77   -1.9809626232860173e+77   6.7999272669755832e+77   1.1985607136498022e+78   -3.2301625650472987e+78   -2.4144427404109708e+78   -1.2145541406676027e+77   -1.4386355668138496e+77   2.3961537661601370e+76   3.9153087914155195e+76   -1.1826482672381048e+77   -4.9299436015252058e+76   -1.5900623589853379e+77   -1.7535803593485217e+77   -1.6616399484439579e+76   -3.5807759897800027e+76   -1.0941347857931490e+78   -2.4287016890419368e+77   -1.9644582196415301e+76   -2.5764221694992872e+74   3.1120214759876252e+76   1.9234594120402804e+76   -4.2176442654413073e+76   -4.0635834469204873e+76   2.7214662598071906e+77   2.7695863099262713e+77   -3.9706679230058744e+76   -9.5754567748926828e+75   -2.2438817441444245e+77   -1.8314102545294490e+77   5.6219322392767727e+76   8.3746991866147176e+76   -1.2233585396793727e+77   -1.2838173206461294e+77   -7.6874523263519769e+76   -8.8022281396737111e+76   2.2474828502621759e+77   3.2984570097455688e+77   4.4034826054304105e+78   1.8816033282522220e+78   3.0745785053176151e+77   2.8726632008270880e+77   7.4534158692445040e+75   -1.1567389641173974e+75   -4.4575199980583376e+77   -1.6809260152139875e+77   7.5905946836994341e+77   7.4469077503753341e+77   -6.7595873339370247e+76   -8.1520961608859097e+76   1.6696071290716939e+76   1.6028310182103915e+76   -9.8110135012337105e+76   -7.1387315152956756e+76   -3.2315431170057162e+77   -1.4405554920579078e+78   -3.4828065790839501e+77   -3.9621675948391922e+77   -1.8382823077279292e+78   -2.9992370255236771e+77   4.8303875727376556e+76   -2.8307660848308201e+76   -8.7484498259772933e+77   -1.6474467199205298e+78   1.5180045539562826e+77   1.7196133417030748e+77   8.6384370214360265e+76   6.4189699053922032e+76   2.2414146786411137e+77   1.5712241807245111e+77   -6.0898165664950228e+76   -3.7634386469922423e+76   3.7876666084663276e+76   9.5141033980454872e+75   2.6166157507268287e+76   -2.6841321082630403e+76   -1.5256352649063085e+77   -1.8161249145482660e+77   -9.3565223350648169e+76   -9.7852411187080762e+76   -2.2562645186088103e+78   -4.1223486112856343e+77   5.5213160588780959e+77   6.4341388692639409e+77   -1.3138432527535039e+77   -1.2091488868029197e+77   -1.1866369693103705e+77   -1.3670797784033231e+77   2.5059020180423589e+77   2.8459166614687182e+77   2.5660394836950201e+76   2.0005168159735831e+76   1.5127613056411419e+76   -9.9446555215580603e+75   -6.6809159966579463e+76   4.2546325611421800e+76   3.6263595496857010e+78   1.5882960560285965e+78   6.0411951383951809e+75   -4.9842721524863630e+75   -4.7505411860150775e+75   3.5571452096903600e+75   -4.0117290099146599e+77   -3.3638837026828469e+77   2.2106795251440801e+78   4.0799426978467290e+77   3.7862256107592556e+76   4.8153062713240418e+76   -3.7179497224971640e+76   -5.7734575855427486e+76   -4.3049272138592170e+77   -2.7161445269890732e+77   1.7780242043084265e+76   6.9360542131475192e+76   3.5925242097108437e+77   2.4424695463937779e+77   7.9021621796050909e+75   7.6477615228175140e+75   6.8902449113088100e+76   3.5835167801667758e+76   -2.0448189667976100e+76   3.1791522175699900e+76   6.2824576960813477e+76   1.0539712038078671e+77   -5.7968484670738069e+76   -4.6702949277183390e+76   -3.8586955917953962e+78   -1.7093913948702198e+77   -9.4927618546667736e+78   -5.2566907373424397e+78   -4.4618369357578039e+77   -4.0109019231215220e+78   9.4805277631491617e+77   7.3879449065927298e+77   8.8634745284946927e+76   5.6850044781998599e+76   -1.4202687127095509e+77   -2.1577941177294683e+77   -1.7668883798761606e+76   -2.1974704414567765e+76   8.3516075226395322e+75   1.0071054452054239e+76   -2.5878856870949134e+76   5.5766819405601512e+75   2.0368839139072913e+77   1.0753325882234048e+77   1.6595002099284365e+77   1.3997830757346617e+77   1.1031440186142403e+77   1.1496941319852159e+77   8.0960653297333148e+76   9.6620074549301432e+76   -3.8809275439124890e+76   8.7643997338430847e+75   -1.3616228353873450e+77   -1.1844563250107584e+77   -9.6308194209204561e+76   -1.0708445960613092e+77   8.5289088488325549e+76   9.4141410194203132e+76   -1.1594220378086970e+76   -1.2399084770263136e+75   2.9515903086480970e+77   6.9659344172479881e+77   -3.5107348231145143e+77   -9.7102978576546550e+77   -1.0549946836045626e+78   -3.4260230264735795e+77   7.6558502789218888e+77   1.6692033165580121e+77   1.1963194420420829e+77   2.9843542032601733e+78   4.0939985728826582e+77   4.9158662698006191e+77   1.0613300815854628e+76   6.5188480755245273e+75   -9.6393615439525208e+75   -2.2893859171976353e+75   -1.9051403216472104e+76   -2.4807621183513892e+75   -2.4539823612756909e+77   -2.2705084740684404e+77   3.9094158717977492e+76   6.1803116871879159e+75   1.6487587770214489e+76   2.8323385957358715e+76   -7.7487731308700562e+76   -6.3523911263725402e+76   2.0614220278020979e+77   9.5962831570042286e+76   8.8502525090924720e+74   9.5289520273815924e+75   2.4292395123638406e+76   2.7925987231956102e+76   -2.0256195960804207e+77   -2.2742959911438868e+77   2.3079733115112072e+77   2.3708013330480400e+77   -9.1233228008002263e+75   3.0825153609790254e+75   -1.4228568038576278e+78   -5.6689107471017724e+77   2.6919942257154175e+77   2.6374308103778326e+77   3.6621786216505246e+76   6.4138941220737241e+76   1.7501783326006826e+78   9.0495358658016783e+77   -7.3200851234080689e+77   -2.1954473453792542e+78   -1.1241551198434775e+77   -1.0119950321917948e+77   1.0907577002418382e+77   1.3135468789621627e+77   -4.5436407302353390e+77   -5.2348275887368058e+77   -3.8730524215973450e+77   -3.9891988021158959e+77   -2.5436369859041028e+75   -1.0750450037119142e+76   4.5105790398205281e+77   9.6513974179852761e+77   -2.8037230513037253e+76   1.2381780604373659e+76   -1.0784621738969043e+78   -3.4817498930720589e+77   -5.0724666671496599e+75   4.8837286405105429e+76   4.8144403547229678e+77   2.5438481471263359e+77   1.3157558733835189e+77   1.3155896388599580e+77   -7.9972751909147973e+77   -1.5632209313096376e+78   -4.7270406310051527e+77   -5.0112661504530234e+77   -6.3586017166434943e+77   -1.9598376802464784e+77   6.7150442607037322e+77   2.0977993061086387e+78   -2.1371261721308806e+76   -3.4941299617647432e+76   1.5658960340418855e+77   6.5006492780151358e+77   3.2819174007450594e+77   2.9460014661535694e+77   5.1962532663179291e+77   4.9534012757148232e+77   5.7981021143168300e+77   6.5553990635184481e+77   5.0235789107047078e+77   1.5191497546142287e+78   -2.5631938865831723e+77   -6.5050015996960449e+77   -1.1273645399355922e+78   -2.5860668860225565e+78   6.3309813439442294e+77   3.8566728594527070e+77   1.2496739693859011e+78   4.9862111406414219e+77   2.0269658640498523e+79   2.0121098032684661e+79   -1.6668992134216997e+77   -1.6997136730197245e+77   -1.5745537456324593e+77   -1.3100598101718659e+77   9.4741298932941160e+76   8.9733713926887356e+76   2.9408691258594073e+78   8.0443389683348259e+77   -3.9194297296954102e+77   -3.1738206786856271e+77   -3.3816949480398024e+75   -8.9270915613310793e+75   -7.0742002699621255e+76   5.0547897105277667e+75   -9.4512952972251791e+75   -2.9390893042532917e+76   -1.2266233111833840e+78   -4.9815616635975746e+77   9.5214837118778266e+77   7.1815984142757145e+77   -6.9835139506145389e+77   -6.6703493660065710e+77   6.0042569370983860e+76   4.3269842936717183e+76   9.3362540962152078e+76   7.4133380133670171e+76   3.8385104991420630e+75   9.3122701902766076e+75   5.4581534504396127e+76   4.4833862590766211e+76   2.4578772424873506e+77   2.6270080527562307e+77   1.9623122397516204e+77   2.0991736990857432e+77   1.9305167058422515e+77   1.8425878344595153e+77   1.5103010484204032e+77   1.7461047727701567e+77   -2.8852691359673418e+76   -2.7443677994938887e+76   -3.4939370073422928e+76   3.3324692800245221e+75   </DataArray> 
</CellData> 
</Piece>
</UnstructuredGrid>
</VTKFile>