<?xml version="1.0"?>
<VTKFile type="UnstructuredGrid"  version="0.1"  >
<UnstructuredGrid>
<Piece  NumberOfPoints="2513" NumberOfCells="4852">
<Points>
<DataArray  type="Float64"  NumberOfComponents="3"  format="ascii">-1 1 0  -1 -1 0  1 -1 0  1 1 0  0 -1 0  1 0 0  0 1 0  -1 0 0  0 0 0  -1 -0.5 0  -0.5 -1 0  -0.5 1 0  -1 0.5 0  1 -0.5 0  0.5 -1 0  1 0.5 0  0.5 1 0  0.4166666666666666 -0.4166666666666667 0  -0.4166666666666667 0.4166666666666667 0  -0.25 -0.5 0  0.5 0.25 0  -0.4861111111111112 -0.06944444444444445 0  0.0732758620689655 0.507183908045977 0  -0.625 -0.625 0  0.625 0.625 0  0.7380952380952381 -0.25 0  -0.7099116161616161 0.2105429292929293 0  -0.25 0.7380952380952381 0  0.105392156862745 -0.6348039215686275 0  0.6770833333333334 -0.6770833333333333 0  -0.6770833333333334 0.6770833333333334 0  0.3472222222222222 -0.06944444444444446 0  -0.7264957264957265 -0.3044871794871795 0  0.3141940982507127 0.7297313660835709 0  0.02049587951122483 -0.3227479397556124 0  -0.2690972222222223 0.1475694444444444 0  0.3859500089908372 -0.7274430156831472 0  -0.2228477945123298 -0.1761765495248019 0  0.2182539682539683 0.1884920634920635 0  0.75 0.375 0  -0.145442219440968 -0.7602211097204841 0  0.7088913690476191 0.0427827380952381 0  -0.75 -1 0  -1 -0.75 0  1 0.75 0  0.75 1 0  -0.7439982703698937 -0.04614153195464455 0  -0.4609235096577606 -0.3356498099556895 0  0.4063134471431929 0.4895621842856023 0  0.25 -1 0  -0.25 -1 0  -0.75 1 0  0.75 -1 0  -1 -0.25 0  -1 0.25 0  1 -0.25 0  -0.25 1 0  1 -0.75 0  -1 0.75 0  0.25 1 0  1 0.25 0  -0.4041423272138783 -0.7597141090712928 0  0.06500839607911253 0.7578103030529481 0  -0.1572801182352047 0.3838997021864289 0  -0.6528005242053915 0.4409494757946086 0  -0.4930160984848485 0.1544744318181818 0  -0.4732142857142858 0.7752976190476191 0  0.6398809523809523 -0.4538690476190476 0  0.5166054117396399 -0.2161233620965164 0  -0.002273787244753427 0.2232363985975174 0  0.1500564496765022 -0.1524955293952667 0  0.2016720420046758 -0.4410343282803009 0  -0.08495178036419618 0.6274139771124571 0  -0.8367311471133162 0.3642591720794645 0  -0.8333333333333334 -0.625 0  -0.594323836800685 -0.8231079456002283 0  -0.4466957714776065 -0.5349126855671806 0  0.8125 0.5625 0  0.78125 0.78125 0  0.5091392650016769 0.7947130883338923 0  0.125 -0.8382681931833136 0  -0.8184523809523809 -0.8184523809523809 0  -0.07781530426104531 -0.5819319697006881 0  0.5085055196703295 0.04967610411902112 0  0.2918471072074933 -0.276017202318847 0  0.5120763537765269 -0.5898771553229597 0  0.625 -0.8585349462365591 0  0.8158532234335381 -0.8158532234335381 0  -0.5198088446315396 0.5739411553684605 0  -0.8585349462365591 0.625 0  -0.8150493805516597 0.8156205699829586 0  0.8585349462365591 -0.625 0  -0.2688268348649726 0.5439331383603209 0  0.8242100426758139 -0.4436043596336612 0  0.5833756314287952 0.4479378157143976 0  0.8690476190476191 -0.125 0  -0.125 0.8690476190476191 0  -0.8692745600729823 0.125 0  0.8696725120759167 0.125 0  -0.625 0.8711516477451908 0  0.2339522463269718 0.3879558377955778 0  0.2453709502295031 0.5655822922838026 0  0.1730610651637797 0.02021709580868947 0  0.3245402594056757 -0.5644672020485209 0  -0.7291666666666666 -0.4816595441595442 0  -1 -0.375 0  -0.5811140848639904 -0.2127276307675001 0  0.673332592838314 0.2158348143233718 0  0.375 1 0  -0.5714768890989919 0.2985103444040069 0  -1 -0.125 0  -0.8453692574786325 -0.1875 0  -0.3144549134065865 -0.02408675326008025 0  -0.2898414972096258 -0.3336092734780093 0  -0.1075052092206287 -0.4224330421314983 0  -0.05043970703604117 -0.1652278959397459 0  0.6459672950297897 -0.1113415301525317 0  0.4645210271029513 0.6398480556579343 0  0.3512863754411909 0.0937979496253573 0  -0.6063160985568274 0.03891469652249891 0  -0.3428819444444445 0.8690476190476191 0  0.625 1 0  -0.1602164796159982 0.02697860906625157 0  0.04648110064133829 -0.4808416424239687 0  1 0.875 0  -0.3836102479201657 0.6484936449177356 0  -0.3776011723096096 0.263078478984336 0  -0.6024978259969829 -0.3949628096211138 0  0.125 1 0  0.2010781308272777 0.8456221018461906 0  0.2822509696388829 -0.845902544691141 0  -0.3285533674953515 -0.6289773550938936 0  0.3461306793221754 0.278777492464833 0  0.4737475672408696 -0.8508448959534423 0  0.2384632828836344 -0.7029523187242811 0  -0.004777287059791593 0.3759269695907358 0  -0.8499735021850066 -0.3912320205328522 0  0.1222536293721587 0.2963971539625205 0  -0.3769456520999688 -0.203572526805711 0  -0.2749617205755651 -0.8464290792698902 0  0.004805888512766143 -0.747174355248311 0  -0.125 -1 0  -0.06001061822252458 -0.8724007765244854 0  0.875 0.4375 0  0.854421179608893 0.271342359217786 0  0.875 1 0  -0.1499861095763589 0.2358309656934888 0  0.3381943639137225 0.8663061796405532 0  -0.7853090110442228 0.4998412775277108 0  0.7398165998560814 -0.5535192694951373 0  0.1580042122341573 -0.3100246140259917 0  -0.7291666666666667 -0.7142857142857142 0  -0.375 -1 0  0.6483368386154684 0.8514905990110488 0  -0.1295370103291928 -0.2826118305021242 0  0.07458201853700455 0.1123894386563915 0  0.6146465857036327 -0.3161203659316075 0  0.5551898493894731 -0.740296118159085 0  0.375 -1 0  0.482702798370208 -0.084133350091034 0  0.87890625 0.68359375 0  -0.05917195534525846 0.4971092425697621 0  0.1260710309213975 0.6343750312956699 0  0.8690476190476191 -0.3077066815262848 0  -0.2912010232560567 0.3668168386732139 0  -0.875 1 0  -1 0.875 0  1 -0.875 0  0.875 -1 0  -0.8689564281364567 -0.006189266075306407 0  -0.7449425635110547 0.08458938160051771 0  -0.7150266761936593 -0.1739444581417552 0  -0.5260034831318311 -0.711099823962112 0  -0.4724626808827322 -0.871722230709409 0  0.4734436795977052 0.377714794132168 0  -0.875 -1 0  -1 -0.875 0  0.6927189078571988 0.5156567235715964 0  -0.3742497615796874 -0.4296005251260107 0  -0.1969436423297711 -0.6387157229772615 0  -0.6179496409766825 -0.08933356056510935 0  -0.424405057115988 0.04452428810878029 0  -0.08479048335844169 0.1279607007132633 0  0.003830300099055113 0.8712085230656206 0  0.8748778838820267 -1.379218479898026e-05 0  -0.375 1 0  -0.625 1 0  1 0.125 0  -0.125 1 0  1 -0.375 0  1 -0.125 0  1 -0.625 0  0.625 -1 0  0.125 -1 0  -0.625 -1 0  -1 -0.625 0  -1 0.125 0  -1 0.375 0  -1 0.625 0  1 0.375 0  1 0.625 0  0.6325660748712082 0.3335187599557389 0  -0.06420945895056573 0.7549874027425891 0  -0.8769015540914771 0.2478802253893416 0  0.871875 0.871875 0  -0.6868091492840067 0.3270978624973681 0  -0.5363597469565949 0.412994850055505 0  -0.6803734992638302 0.5574295000651103 0  -0.7076253581162534 -0.8803439094224437 0  -0.8778089002295137 -0.5106896447504627 0  -0.3860184984222981 0.530566778071246 0  0.6109900617121508 0.1128453077697081 0  0.3896945134930274 -0.1915382873255086 0  0.7605656944697778 -0.06822134873122943 0  0.3576151269893478 0.5948388411612135 0  -0.5689902680792265 -0.5143596830118065 0  0.6262446286847614 -0.5735657901943212 0  0.2030558252325225 -0.5625263842513452 0  0.6123273142928579 0.7407533260723429 0  0.4016460890123554 -0.3042863223111857 0  -0.59039693199147 0.7578418819188018 0  0.7276932493917544 -0.3705808024528924 0  0.5222536818742854 -0.4713886230400014 0  -0.5101986527137737 0.8848365765607674 0  0.510560172809238 0.5356013299918891 0  -0.3603569195756083 0.75823710606415 0  0.1967279277813232 0.728226870058472 0  -0.6086880986371127 0.1545624071548516 0  -0.38105366729386 0.1511189987807864 0  -0.2944659463671584 -0.7359061804869591 0  0.5060729154966499 -0.3475227845833823 0  -0.09281616240412746 -0.06197858250969457 0  0.7649739583333334 0.6673177083333334 0  0.7628906249999999 0.890234375 0  -0.2666864184909611 0.2585504071132311 0  0.3635064892129658 0.3878003602709461 0  -0.2339409722222222 0.8901937905844155 0  -0.1718792125974916 -0.8957733325456778 0  0.1001768566329531 0.4023510017391879 0  0.3120260172693757 -0.4540546875576884 0  0.7804062804433681 0.1896628610854537 0  0.4087715451998049 0.187961780041608 0  -0.1584963477271457 0.5451611892421655 0  -0.8926817849258324 0.463022006336401 0  0.2338091473445219 -0.07576267331277289 0  0.08171112182813692 -0.2349087687359925 0  0.04635385178956847 -0.1044635073718474 0  -0.4377391632114205 -0.6448874471423088 0  -0.1907678351227189 0.6480215912813945 0  0.300605946475244 0.4741444604171038 0  -0.2145033720757486 -0.06751709909419711 0  0.6069191921170397 -0.005492331448357812 0  0.0214718770761248 0.6032397936031719 0  0.5476675683364878 0.8992752415326501 0  0.4387475014316537 0.9093708953002239 0  -0.4932997685306436 -0.4381009159993523 0  0.2515197695339056 -0.1791673369138964 0  -0.7291666666666667 -0.6088789682539681 0  -0.9166666666666667 -0.6875 0  0.620579540363709 -0.2122431523583302 0  -0.484950136419973 0.6719440339397442 0  0.2857044415400258 0.0137589173127316 0  -0.8945708364098356 -0.288306105327986 0  0.4043102720140535 0.7842914560451557 0  0.04123256238752064 -0.9026968245801402 0  0.2003676884403109 -0.9091888601740487 0  0.1068775558538842 -0.7373377130403223 0  -0.4804566783514427 -0.1763307203045643 0  0.108286342087769 -0.3993789328997278 0  -0.191883080105361 -0.3640821726430649 0  -0.07025064492006244 0.2984876656890053 0  -0.7039324641409584 0.788312126296613 0  -0.7311286585775438 0.8932502354831682 0  0.5171409396884947 0.1503852691889257 0  0.4229392823658633 -0.003216522184234835 0  -0.5621736087218259 -0.919558629836806 0  -0.626474064879544 -0.7266572613636506 0  0.2446828746617422 0.2867616783302419 0  0.1759429608742923 0.4776611759306416 0  -0.3468240303741654 -0.5260416435617549 0  -0.7465808808425306 0.4069574477998361 0  -0.7819962170660292 0.2802441065650652 0  -0.3742623214119594 -0.8547800509641984 0  0.1014498009713561 0.8506721983266377 0  0.4285217620918213 -0.5230190595570253 0  0.4091738370487775 -0.6256346204225141 0  0.78125 0.46875 0  0.90625 0.53125 0  -0.4791801348852565 0.2553992655702126 0  0.7843318610782772 -0.7086046956885941 0  0.8909728264971901 -0.7355183796514634 0  0.7041908166528879 -0.7830649143180282 0  0.7311821352
[...]
<PointData  Scalars="velocity-2"> 
<DataArray  type="Float64"  Name="velocity-2"  format="ascii">0.0000000000000000e+00  0.0000000000000000e+00  1.0000000000000000e+01  1.0000000000000000e+01  5.0989136173997682e+00  1.0000000000000000e+01  5.0989518956996429e+00  0.0000000000000000e+00  5.0989163741866159e+00  0.0000000000000000e+00  2.5704361374516158e+00  2.5704134286345934e+00  0.0000000000000000e+00  1.0000000000000000e+01  7.5695184479793927e+00  1.0000000000000000e+01  7.5695125843407034e+00  7.1613578674871565e+00  2.9955507836313178e+00  3.8416951348927881e+00  7.5694814487855444e+00  2.6413426905116641e+00  5.4645237957511847e+00  1.9303532426866843e+00  8.1795244761606050e+00  8.7296885110822622e+00  1.4943270352108087e+00  3.8416972825155105e+00  5.6243553919070255e+00  8.4330808891234152e+00  1.6630006044088479e+00  6.8202741251564376e+00  1.4090513614566158e+00  6.6576951745661477e+00  5.2013043978712918e+00  3.7450520848977096e+00  7.0106091528132692e+00  3.9789565452950901e+00  6.1841313802267113e+00  8.7875283309258574e+00  4.3693151963116170e+00  8.5877666078545332e+00  1.2881792296484458e+00  0.0000000000000000e+00  1.0000000000000000e+01  8.7875355082121285e+00  1.3190502198512772e+00  2.7699159981300117e+00  7.1105915667547990e+00  6.3410896471970162e+00  3.8417227896024189e+00  1.2881597131515161e+00  8.7875487388924700e+00  0.0000000000000000e+00  0.0000000000000000e+00  1.0000000000000000e+01  3.8416708768693213e+00  1.0000000000000000e+01  0.0000000000000000e+00  6.3410655267240879e+00  1.0000000000000000e+01  3.0593463388427691e+00  5.4233344024025119e+00  4.3097342890085013e+00  1.7877137965297785e+00  2.6060913588375829e+00  2.7072022836890492e+00  8.2520253440060678e+00  7.6506525033045083e+00  5.0875318694210021e+00  5.8462729904001343e+00  6.1021011977883353e+00  4.6733994197018571e+00  8.4165333649630825e-01  8.5915363867561101e-01  2.0876446146236902e+00  2.8424961955610883e+00  9.0909563029353553e+00  8.9392784958081730e+00  7.6141880903796517e+00  5.7218093377637507e+00  9.3580326410672598e-01  4.7091808913791757e+00  7.6110837794380695e+00  6.5475597780230528e+00  7.6285300173733042e+00  8.1795301336058266e+00  9.1072324383944139e+00  2.4691356836580036e+00  7.2931599123153790e-01  9.5333409104413380e-01  9.3142774161239448e+00  3.7464047972459338e+00  9.1477865642307687e+00  7.9766425644463466e+00  9.3652608415183103e+00  4.4722072062972673e+00  6.7397898538269507e-01  9.3682941124373311e+00  1.9303735490281115e+00  6.2617663293065622e+00  6.3182138155541070e+00  5.9603665804580830e+00  6.7086363191071436e+00  1.3953263975993750e+00  0.0000000000000000e+00  2.1553344212054171e+00  8.4148273125161310e+00  6.9568741768156848e+00  2.2047297100398717e+00  0.0000000000000000e+00  7.9714660222055911e-01  3.5151916863525181e+00  3.6399583930241231e+00  4.5601151214334479e+00  4.8464598570544295e+00  8.2816458364412693e+00  7.3958584248709496e+00  6.8402681907372180e+00  2.0262021505634702e+00  3.3708826541465227e+00  8.1795427151083526e+00  4.2949144104793815e+00  5.3309969375502329e+00  1.0000000000000000e+01  3.1638530188414817e+00  3.1944074697058844e+00  2.0457606253580836e+00  5.7218640050759966e+00  6.0991235451453578e+00  6.5002611074440306e+00  3.4436240838675318e+00  6.8148697711515007e+00  7.4410530985942849e+00  6.2840484339627878e+00  5.0750169145210533e+00  7.7342975217220589e-01  5.7081696020243591e+00  3.1977630946015041e+00  3.7153491608417402e+00  5.1229324519663049e+00  4.4721954355331777e+00  4.7985172533166729e+00  9.3941222013514700e+00  9.2943274589722922e+00  9.3941211322996470e+00  4.3464598054221693e+00  6.7758490785050016e+00  1.1064494600101327e+00  8.7380548117166708e+00  5.8856794412202413e+00  1.3953154863375317e+00  3.2076582312511346e+00  8.2931838268585274e+00  4.4493648131614609e+00  5.4710068952267932e+00  8.1290886237810636e+00  7.8391229254184465e+00  6.9568444217602030e+00  7.4848839092102564e+00  9.4130592742160388e+00  4.8026866936020847e+00  5.7271498520034259e+00  9.3652583484668117e+00  3.6330708241521164e+00  6.4448028935580892e-01  0.0000000000000000e+00  1.0000000000000000e+01  9.3941294258820829e+00  6.7561302029499215e-01  1.3141853008072519e+00  1.4680252757571612e+00  2.4374561008536202e+00  2.7110228445669566e+00  7.4395633134489012e+00  6.4447433016632061e-01  0.0000000000000000e+00  8.5091286165664695e+00  3.2114577654541572e+00  4.1097402868326762e+00  1.9665203837468990e+00  2.9561237599370398e+00  4.6741975239186919e+00  5.1180258267823691e+00  9.3935292495682585e+00  3.2077016940214134e+00  1.9303776460425808e+00  1.0000000000000000e+01  4.4721872457673966e+00  1.0000000000000000e+01  1.0000000000000000e+01  1.0000000000000000e+01  8.1795469959264846e+00  5.7218567483253855e+00  1.9303756238189005e+00  0.0000000000000000e+00  0.0000000000000000e+00  0.0000000000000000e+00  0.0000000000000000e+00  1.0000000000000000e+01  1.0000000000000000e+01  8.2163803295264959e+00  4.7774444949290720e+00  6.3467327730984202e-01  9.3789731965824856e+00  1.6130661449370238e+00  2.3844922882228548e+00  1.6461153415027523e+00  1.5060639242861993e+00  6.2999471823628894e-01  3.1515997647930662e+00  8.1112646097707035e+00  7.0289530626205883e+00  8.8388478517659870e+00  6.8713695328497355e+00  2.2174400213870036e+00  8.1856022177695813e+00  6.1089368556706791e+00  8.1177910482323679e+00  7.0876661819367559e+00  2.1077893054059182e+00  8.6791521409128940e+00  7.6782704364885497e+00  2.5182568031264863e+00  7.6211194494384111e+00  3.2821148013227486e+00  6.0775888725878433e+00  2.0140295950273117e+00  3.1768651594070487e+00  3.6165397397291263e+00  7.5991861582163303e+00  4.6339069231996879e+00  8.8602517384147035e+00  8.8501402980868438e+00  3.7572722407448604e+00  6.9003176376049824e+00  3.9228798269827343e+00  4.2361520037524922e+00  5.5984256161849144e+00  6.6470484448298786e+00  8.9351942621262008e+00  7.1226489325475919e+00  4.3035962954181617e+00  5.5333986029500515e-01  6.2610532770914560e+00  5.5065115046762898e+00  5.3303410566667822e+00  2.8881898305048264e+00  4.1409090962725355e+00  6.5907527458593762e+00  4.0211468025357888e+00  8.0914344294813674e+00  5.2061996909134418e+00  7.8023968755038196e+00  7.2696423482394099e+00  2.6046024152373288e+00  6.3485761731117787e+00  1.3953135299706043e+00  4.2969621490687537e-01  8.1579958650311237e+00  2.6472591177557279e+00  6.5172866480101233e+00  5.4359749675644065e-01  7.1007404838438859e+00  5.3048131425228950e+00  6.0956389205147810e+00  5.6317397193537824e+00  2.6702225453404367e+00  5.6387610564617621e+00  4.1352772807253615e+00  4.7471448402256966e+00  1.5250524339399820e+00  1.3852518688178592e+00  7.6532893812497580e+00  7.1921298875707107e+00  2.2523577746015375e+00  1.9227928966071410e+00  6.3148032584183316e+00  5.9746237327548144e+00  3.3508849621581942e+00  1.3057556016135070e+00  1.1235238719919973e+00  3.2114155144178680e+00  5.6047539881708035e+00  7.2194826877300446e+00  7.1246123236819914e+00  8.9392781526809806e+00  9.5456305002203496e+00  2.6767465313784715e+00  8.9542456132342618e+00  9.4715670901723250e+00  8.5649162030271171e+00  8.6961058855902760e+00  4.2251734791682471e-01  4.8023943767589000e-01  1.1118992803172263e+00  3.9241343449004096e+00  1.0323234334546663e+00  5.2779599603802274e-01  4.6805169862388768e-01  8.9748548446926024e-01  8.8827770624415336e-01  9.4800971752319043e+00  3.6534317890208454e+00  2.1526641597544018e+00  6.9744294807092437e+00  4.7166323410978288e+00  5.2111788921164939e+00  4.2598800773605099e+00  1.1928395460004604e+00  6.6542448386659903e+00  5.7016120889727473e+00  3.1502039526740875e+00  3.4407367182331314e+00  4.0490802790205238e-01  7.8747985084342567e+00  9.4926902700279534e+00  9.5478591528454686e+00  9.3960152090948004e+00  2.4209158738471430e+00  2.7122454700489724e+00  2.0842291832087452e+00  6.2952543072857203e+00  8.7658452554901523e+00  3.4487202595669975e+00  6.6918105595099755e+00  6.2610149342573038e+00  4.2965721591799655e+00  7.4403532760023836e+00  4.2008800337955066e+00  1.9153559584870399e+00  8.7117685288538542e+00  3.5251016015300074e+00  8.9337147593347712e+00  8.8736626249565886e-01  9.5491763237309399e+00  3.4564063475447498e-01  2.4953488093612655e+00  8.3943009347937938e+00  8.0651813841307938e+00  8.0035487652995787e+00  4.7860341490000193e+00  1.0938752631228925e+00  3.3704300830601164e-01  9.0386785980849886e+00  9.6841920103189985e+00  3.5485822786345569e+00  6.6493498025662277e+00  7.7069774029324014e+00  7.2634919588154006e+00  9.6840631222766334e+00  9.0909598844662636e+00  6.5109506038070091e+00  5.7421104456920542e+00  2.8894021862893244e+00  1.2532954913505852e+00  1.0702581721817974e+00  1.7199918821986395e+00  9.6838160416421672e+00  3.2302351118677053e-01  3.2339637883875288e-01  9.6841913563500270e+00  9.6826817703915342e+00  5.4108568062783400e+00  4.1522214102297439e-01  9.6823198794895866e+00  8.5924787329236985e+00  7.9735199357490245e+00  5.6641403015974747e+00  6.0294627921979895e+00  8.4837435850698792e+00  7.0080778050450743e+00  6.7889379557349043e+00  5.1078759485228069e+00  5.5220703898190120e+00  3.3704718629595143e-01  1.6142272725617051e+00  8.5600810087311618e+00  3.8519237454492417e+00  4.3422457445274105e+00  2.7010876502470786e+00  5.0728677725616205e+00  6.0318932701516710e+00  2.5348371493106709e+00  3.6529326090548864e+00  3.2062637899648716e+00  3.9834144838936845e+00  7.9520421590521631e+00  7.2812345884572398e+00  9.1374643840683056e+00  5.1283895211874659e+00  2.5046358689702370e+00  9.9055557162134422e-01  3.6079240881337409e+00  8.7042677321192947e+00  9.2082633836686956e+00  4.2969190896167397e-01  3.8159735579183451e-01  7.8919195295958957e+00  8.5275259139889137e+00  4.0034118552522022e+00  8.4664492663655224e+00  4.4680203179880866e+00  6.4047208491937857e+00  7.7881894644708138e+00  2.9216495080487070e+00  2.3085811636548286e+00  4.8665877206063355e+00  5.0455012011257780e+00  4.7749470803683858e+00  5.8066245243532313e+00  2.2977095473595317e+00  1.8391539821336655e+00  2.0189975623138761e+00  1.8694778038837954e+00  2.3403984884363531e+00  2.2507239384636550e+00  4.7219465271732410e+00  5.0840070908276118e+00  4.1616739335581725e+00  7.5787541134110858e+00  6.3644897661250743e+00  1.7262744094423559e+00  2.3100891618365473e+00  8.7761091820661097e+00  4.4161426888422222e+00  7.1438096338864785e+00  7.7790515950236081e+00  7.2533040039254582e+00  2.8894036885938816e+00  6.1648872239010455e+00  3.5911022199756713e+00  3.6145102885426459e+00  5.8784914445969596e+00  5.1404629306838743e+00  5.6982421438875841e+00  6.1217241038553052e+00  4.7001010554930458e+00  3.2228854340675364e+00  3.0486305373605846e+00  9.1294733017406262e+00  9.6950006648406681e+00  6.6710850434809030e+00  4.5385079826190755e-01  4.3481016651417708e+00  7.3414501336140781e+00  3.4701362958663697e+00  9.1604386421090656e+00  2.9376386589560277e+00  6.5881136410488477e+00  3.9666987394262332e+00  2.8387805425280268e+00  9.6572028238916499e+00  5.3163865145343769e-01  5.8372992087832269e+00  8.1782029760399393e+00  9.4122075928313063e+00  3.2228797536236459e-01  8.9702878307939340e+00  4.1573729083268223e+00  3.4206181455860194e+00  1.6490886313839801e+00  4.0616240544215410e-01  6.4129734744288340e+00  1.0716315721767871e+00  1.7276933057977664e+00  1.7613534407976923e+00  5.2714580364212100e+00  5.2799180066476517e+00  8.4837716021536611e+00  8.3614661482568167e+00  6.3408505035809215e+00  1.0000000000000000e+01  2.9569136712839161e+00  9.8149011752023363e-01  7.8107248567786689e+00  3.6713400443073749e+00  3.2048081773036112e+00  4.7494766452511250e+00  1.8943657463472070e+00  1.6095014203163094e+00  7.9414971345024163e+00  8.6438729314187288e+00  2.3715359613124116e+00  2.2763096034343970e+00  6.6493629558469296e+00  3.1290587719293441e+00  5.9131975661803020e+00  2.9780086977376561e+00  4.3763241759013818e+00  4.0589401597604891e+00  4.7154642835115581e+00  1.0000000000000000e+01  9.3313104034518570e+00  7.7247159097223532e+00  7.3827940106187295e+00  7.5265003367666272e-01  8.4988201268598402e+00  7.9987524022299406e+00  6.5536846958679185e+00  4.9643367915492691e+00  1.6095178638917935e+00  9.6789208701045535e+00  4.2451631567202632e+00  3.8784977841742765e+00  1.4544827597438479e+00  9.5755183209152317e-01  7.3033896324833050e+00  8.1446668320215210e+00  4.0924304689919051e+00  5.2739041811415985e+00  5.9119624658191050e+00  5.9704474423097924e+00  5.6886546031994172e+00  1.9000554820436528e+00  7.9776874413545888e+00  0.0000000000000000e+00  1.7700026054379145e+00  2.1406498793330573e+00  4.5649139614483660e+00  2.9553657777784914e+00  3.4416165433377959e+00  9.2158697566803660e+00  7.1322799467868592e+00  7.3721461692085528e+00  4.6877546430213251e+00  3.6472686331063359e-01  8.4598016088025716e+00  4.4654119570154815e+00  4.9840806409207810e+00  5.0108178467397257e+00  1.0000000000000000e+01  8.3074590631666076e+00  7.9131343990770926e+00  8.3878827449098861e+00  3.3123461059387802e+00  9.6971055113488713e+00  9.2425622088929789e+00  9.6472406159741908e+00  0.0000000000000000e+00  9.6971087438132368e+00  4.5032788903522096e+00  1.2392651374405392e+00  1.6070979997303676e+00  6.6792511020408218e+00  6.7000145735320844e+00  6.9358503265534672e+00  6.8517534832559068e+00  9.6643935957657412e+00  9.1071467435736206e+00  5.9702004878575821e+00  5.5508272136569738e+00  8.0354087316272560e-01  3.9689137761296962e+00  5.4696860360196240e+00  3.7645142100963920e+00  2.6633968411192286e+00  1.1656511090253885e+00  1.6872683118354577e+00  1.1273529738629917e+00  3.4844881730471959e+00  8.4929375629390869e+00  1.9877899790952589e+00  7.1299691958291094e+00  0.0000000000000000e+00  2.3490124536249755e+00  9.6733320221325201e+00  6.3491453755809046e-01  6.8873112519287538e+00  5.3637009847351420e+00  3.2467021431523269e+00  6.1555777878196007e+00  5.3825848757928982e+00  4.7989439525236675e+00  5.0973095321602733e+00  7.3338579474622083e+00  9.6827485838045622e+00  1.0175692424853222e+00  9.0517657250741266e+00  5.4472556550204185e+00  9.6903279979260049e+00  5.8490163749912751e+00  6.8192737013939766e+00  5.1227006155027901e+00  2.2139798066289380e+00  4.6444060699392598e+00  1.0000000000000000e+01  5.4831157046874983e+00  1.1458180595845198e+00  6.5908534545763322e+00  1.4348732449221115e+00  4.4664493272681751e+00  9.0434999459466692e+00  7.5713110834394977e+00  1.2767069188087929e+00  1.1703379405185108e+00  3.4073166722836472e+00  9.5978336456629565e-01  2.1999986772474882e+00  2.5851203552213868e+00  2.3785404438153166e+00  2.8368354201616963e+00  2.7276671478271766e+00  9.6826797498069421e+00  1.0000000000000000e+01  1.4181986570801677e+00  5.4950372447275457e+00  8.1863888278245707e+00  7.4746238289294640e+00  7.1883264802379001e+00  7.7654749128867726e+00  9.2678512487232876e+00  4.1574538665297522e+00  8.8200530553119876e+00  3.8947990508721735e+00  4.1466574792769473e+00  6.3499058918226856e+00  9.1582991386378048e+00  5.7884427215876872e+00  3.2591357320983376e+00  8.3559181142472845e+00  4.4510236385870234e+00  5.9433308308093453e+00  8.3928581395798325e+00  8.2614928910609944e+00  5.4109099441301378e+00  0.0000000000000000e+00  9.1756312220520169e+00  0.0000000000000000e+00  8.1646432595119567e+00  4.7870308767329117e+00  2.8959820736666004e+00  2.9185747974696454e+00  2.9621704112355896e+00  6.8544594539865935e+00  4.4037697244726060e+00  7.8748193363507921e+00  1.3446651545797237e+00  4.0424012192114276e+00  8.6035653208794542e+00  7.6511488773799075e+00  1.3953406394638845e+00  4.4167751298411417e+00  4.4677802312179322e+00  5.3598479107518742e+00  8.9350874052338778e+00  7.9438365651931040e+00  6.9588802749227501e+00  6.4348565825318946e+00  8.5450677168079441e+00  9.3811690404256520e+00  9.6968156299854904e+00  7.5656350158437800e+00  7.7355318862465439e-01  5.0992079772690602e+00  3.5401891798613544e-01  5.7195223248847897e+00  9.6968430548076281e+00  1.0000000000000000e+01  1.0000000000000000e+01  9.0909586666466549e+00  3.5251156842501672e+00  8.4837768780392810e+00  0.0000000000000000e+00  3.2228255059449645e-01  5.4108865323834330e+00  0.0000000000000000e+00  1.0000000000000000e+01  2.8894314541259423e+00  9.0909670314684341e+00  1.0000000000000000e+01  7.2635527392226633e+00  6.6493987692434837e+00  1.0000000000000000e+01  1.0000000000000000e+01  1.0000000000000000e+01  0.0000000000000000e+00  0.0000000000000000e+00  0.0000000000000000e+00  4.7860371552497085e+00  0.0000000000000000e+00  3.5251565352572323e+00  7.8748183692983211e+00  0.0000000000000000e+00  9.6646914268677631e-01  9.6647785503099715e-01  0.0000000000000000e+00  2.2506973499085126e+00  6.0319455257613095e+00  0.0000000000000000e+00  7.2635218851055408e+00  1.0000000000000000e+01  1.0000000000000000e+01  9.6971073534258334e+00  0.0000000000000000e+00  6.0319518240290195e+00  0.0000000000000000e+00  4.7860047558254548e+00  1.0000000000000000e+01  1.0000000000000000e+01  2.4061349918377299e+00  7.6556081077927152e+00  2.8000655087301912e-01  6.2863735680492452e+00  5.9311953279377843e+00  8.0692413383517962e+00  3.9961767993824422e+00  2.2628664090486339e+00  2.5085460361268410e+00  2.0263418565208617e+00  9.0394877931911441e+00  1.7699977568366623e+00  3.0387313950492784e-01  1.5093619973060384e+00  8.6345315323660330e+00  6.5375704471269469e-01  8.1434194611828115e-01  3.1696550054441797e-01  6.5834078061048817e-01  4.8339372512474921e-01  7.2493838175570402e-01  6.7416280630027170e-01  9.0694274092495721e+00  8.7373285593877075e+00  2.3963308964302237e+00  5.7524642637028123e+00  9.6655119217731560e+00  9.4983426036951668e-01  6.5172271634500643e+00  4.3282623892276773e+00  1.4316738062266618e+00  4.0272501894084565e+00  2.9810463150105408e+00  3.6868700647127643e+00  7.7348358887886048e+00  9.2204519876096835e+00  2.1973195408680271e+00  8.8905942480538140e+00  8.6180796912990836e+00  6.8462879181957401e+00  3.5499506353656054e+00  4.9099901877264038e+00  7.0904118081568752e+00  2.7127850091355992e+00  5.5042260325603021e+00  9.0407420429096135e+00  2.9596283123433276e+00  6.3696710049859435e+00  8.3174401412599668e+00  7.8145364598094957e+00  8.2616250569353724e+00  3.1057525502780625e-01  2.6878302191145149e+00  2.3823726907658012e+00  2.0908018860762825e+00  1.3694297361379404e+00  1.7310726972011448e+00  4.2243070197528674e+00  5.3331618725107184e+00  4.9730708444384728e+00  7.8499577184928242e+00  9.3972504288491017e+00  9.1811490079059244e+00  7.5334856751182633e+00  7.3646017994521671e+00  4.0703568027359012e+00  5.3627835346877859e+00  1.2536686728340027e+00  1.4461204323866608e+00  1.9136643169443672e+00  1.7185324819154428e+00  2.0648306117820350e+00  1.9605110213573098e+00  1.7905653567052544e+00  6.4828989156415586e+00  6.4058424606662490e+00  3.9628131150694852e+00  6.0023128414210802e+00  9.0070562834875005e+00  3.4613905763805328e+00  3.0096630271692177e+00  9.7303663763618395e+00  8.6303770302719229e+00  8.8055507026057427e+00  5.5425734337892587e+00  9.4276012685276167e-01  6.5507762842206576e+00  4.9472639583658724e+00  3.4126649504940203e+00  7.0705986030260499e+00  7.8991794994607458e+00  1.8209107045495065e+00  8.4678830170531914e+00  8.2284935897204630e+00  7.8410959008140164e+00  9.6854858810415827e+00  8.7949628403118663e+00  8.9019048866939627e+00  9.1930055224141594e+00  8.5210050845837682e+00  3.1912591798997636e+00  1.1775780252603583e+00  1.7152714868418741e+00  9.6954812762811518e+00  3.2874780743698215e+00  1.7286394070972837e+00  6.5839196263754509e+00  7.1194771847118439e+00  4.5646653920095250e+00  3.7364632223610368e+00  4.8672065731613641e+00  2.3103337061265319e+00  2.4453491236761575e+00  2.2316757590685175e+00  2.5710946461979500e-01  3.1251344542615187e+00  8.2531005147741077e+00  7.8955607367820999e+00  1.4801126369692841e+00  9.2538607233384393e+00  7.9441107478497930e+00  8.5363288242429327e+00  7.4300692050379462e+00  6.3534610511246088e+00  1.7674542597457665e+00  1.5141974934419642e+00  1.2006035669246002e+00  1.2900329888726871e+00  6.0327408429801856e+00  7.79302