<?xml version="1.0"?>
<VTKFile type="UnstructuredGrid"  version="0.1"  >
<UnstructuredGrid>
<Piece  NumberOfPoints="2513" NumberOfCells="4852">
<Points>
<DataArray  type="Float64"  NumberOfComponents="3"  format="ascii">-1 1 0  -1 -1 0  1 -1 0  1 1 0  0 -1 0  1 0 0  0 1 0  -1 0 0  0 0 0  -1 -0.5 0  -0.5 -1 0  -0.5 1 0  -1 0.5 0  1 -0.5 0  0.5 -1 0  1 0.5 0  0.5 1 0  0.4166666666666666 -0.4166666666666667 0  -0.4166666666666667 0.4166666666666667 0  -0.25 -0.5 0  0.5 0.25 0  -0.4861111111111112 -0.06944444444444445 0  0.0732758620689655 0.507183908045977 0  -0.625 -0.625 0  0.625 0.625 0  0.7380952380952381 -0.25 0  -0.7099116161616161 0.2105429292929293 0  -0.25 0.7380952380952381 0  0.105392156862745 -0.6348039215686275 0  0.6770833333333334 -0.6770833333333333 0  -0.6770833333333334 0.6770833333333334 0  0.3472222222222222 -0.06944444444444446 0  -0.7264957264957265 -0.3044871794871795 0  0.3141940982507127 0.7297313660835709 0  0.02049587951122483 -0.3227479397556124 0  -0.2690972222222223 0.1475694444444444 0  0.3859500089908372 -0.7274430156831472 0  -0.2228477945123298 -0.1761765495248019 0  0.2182539682539683 0.1884920634920635 0  0.75 0.375 0  -0.145442219440968 -0.7602211097204841 0  0.7088913690476191 0.0427827380952381 0  -0.75 -1 0  -1 -0.75 0  1 0.75 0  0.75 1 0  -0.7439982703698937 -0.04614153195464455 0  -0.4609235096577606 -0.3356498099556895 0  0.4063134471431929 0.4895621842856023 0  0.25 -1 0  -0.25 -1 0  -0.75 1 0  0.75 -1 0  -1 -0.25 0  -1 0.25 0  1 -0.25 0  -0.25 1 0  1 -0.75 0  -1 0.75 0  0.25 1 0  1 0.25 0  -0.4041423272138783 -0.7597141090712928 0  0.06500839607911253 0.7578103030529481 0  -0.1572801182352047 0.3838997021864289 0  -0.6528005242053915 0.4409494757946086 0  -0.4930160984848485 0.1544744318181818 0  -0.4732142857142858 0.7752976190476191 0  0.6398809523809523 -0.4538690476190476 0  0.5166054117396399 -0.2161233620965164 0  -0.002273787244753427 0.2232363985975174 0  0.1500564496765022 -0.1524955293952667 0  0.2016720420046758 -0.4410343282803009 0  -0.08495178036419618 0.6274139771124571 0  -0.8367311471133162 0.3642591720794645 0  -0.8333333333333334 -0.625 0  -0.594323836800685 -0.8231079456002283 0  -0.4466957714776065 -0.5349126855671806 0  0.8125 0.5625 0  0.78125 0.78125 0  0.5091392650016769 0.7947130883338923 0  0.125 -0.8382681931833136 0  -0.8184523809523809 -0.8184523809523809 0  -0.07781530426104531 -0.5819319697006881 0  0.5085055196703295 0.04967610411902112 0  0.2918471072074933 -0.276017202318847 0  0.5120763537765269 -0.5898771553229597 0  0.625 -0.8585349462365591 0  0.8158532234335381 -0.8158532234335381 0  -0.5198088446315396 0.5739411553684605 0  -0.8585349462365591 0.625 0  -0.8150493805516597 0.8156205699829586 0  0.8585349462365591 -0.625 0  -0.2688268348649726 0.5439331383603209 0  0.8242100426758139 -0.4436043596336612 0  0.5833756314287952 0.4479378157143976 0  0.8690476190476191 -0.125 0  -0.125 0.8690476190476191 0  -0.8692745600729823 0.125 0  0.8696725120759167 0.125 0  -0.625 0.8711516477451908 0  0.2339522463269718 0.3879558377955778 0  0.2453709502295031 0.5655822922838026 0  0.1730610651637797 0.02021709580868947 0  0.3245402594056757 -0.5644672020485209 0  -0.7291666666666666 -0.4816595441595442 0  -1 -0.375 0  -0.5811140848639904 -0.2127276307675001 0  0.673332592838314 0.2158348143233718 0  0.375 1 0  -0.5714768890989919 0.2985103444040069 0  -1 -0.125 0  -0.8453692574786325 -0.1875 0  -0.3144549134065865 -0.02408675326008025 0  -0.2898414972096258 -0.3336092734780093 0  -0.1075052092206287 -0.4224330421314983 0  -0.05043970703604117 -0.1652278959397459 0  0.6459672950297897 -0.1113415301525317 0  0.4645210271029513 0.6398480556579343 0  0.3512863754411909 0.0937979496253573 0  -0.6063160985568274 0.03891469652249891 0  -0.3428819444444445 0.8690476190476191 0  0.625 1 0  -0.1602164796159982 0.02697860906625157 0  0.04648110064133829 -0.4808416424239687 0  1 0.875 0  -0.3836102479201657 0.6484936449177356 0  -0.3776011723096096 0.263078478984336 0  -0.6024978259969829 -0.3949628096211138 0  0.125 1 0  0.2010781308272777 0.8456221018461906 0  0.2822509696388829 -0.845902544691141 0  -0.3285533674953515 -0.6289773550938936 0  0.3461306793221754 0.278777492464833 0  0.4737475672408696 -0.8508448959534423 0  0.2384632828836344 -0.7029523187242811 0  -0.004777287059791593 0.3759269695907358 0  -0.8499735021850066 -0.3912320205328522 0  0.1222536293721587 0.2963971539625205 0  -0.3769456520999688 -0.203572526805711 0  -0.2749617205755651 -0.8464290792698902 0  0.004805888512766143 -0.747174355248311 0  -0.125 -1 0  -0.06001061822252458 -0.8724007765244854 0  0.875 0.4375 0  0.854421179608893 0.271342359217786 0  0.875 1 0  -0.1499861095763589 0.2358309656934888 0  0.3381943639137225 0.8663061796405532 0  -0.7853090110442228 0.4998412775277108 0  0.7398165998560814 -0.5535192694951373 0  0.1580042122341573 -0.3100246140259917 0  -0.7291666666666667 -0.7142857142857142 0  -0.375 -1 0  0.6483368386154684 0.8514905990110488 0  -0.1295370103291928 -0.2826118305021242 0  0.07458201853700455 0.1123894386563915 0  0.6146465857036327 -0.3161203659316075 0  0.5551898493894731 -0.740296118159085 0  0.375 -1 0  0.482702798370208 -0.084133350091034 0  0.87890625 0.68359375 0  -0.05917195534525846 0.4971092425697621 0  0.1260710309213975 0.6343750312956699 0  0.8690476190476191 -0.3077066815262848 0  -0.2912010232560567 0.3668168386732139 0  -0.875 1 0  -1 0.875 0  1 -0.875 0  0.875 -1 0  -0.8689564281364567 -0.006189266075306407 0  -0.7449425635110547 0.08458938160051771 0  -0.7150266761936593 -0.1739444581417552 0  -0.5260034831318311 -0.711099823962112 0  -0.4724626808827322 -0.871722230709409 0  0.4734436795977052 0.377714794132168 0  -0.875 -1 0  -1 -0.875 0  0.6927189078571988 0.5156567235715964 0  -0.3742497615796874 -0.4296005251260107 0  -0.1969436423297711 -0.6387157229772615 0  -0.6179496409766825 -0.08933356056510935 0  -0.424405057115988 0.04452428810878029 0  -0.08479048335844169 0.1279607007132633 0  0.003830300099055113 0.8712085230656206 0  0.8748778838820267 -1.379218479898026e-05 0  -0.375 1 0  -0.625 1 0  1 0.125 0  -0.125 1 0  1 -0.375 0  1 -0.125 0  1 -0.625 0  0.625 -1 0  0.125 -1 0  -0.625 -1 0  -1 -0.625 0  -1 0.125 0  -1 0.375 0  -1 0.625 0  1 0.375 0  1 0.625 0  0.6325660748712082 0.3335187599557389 0  -0.06420945895056573 0.7549874027425891 0  -0.8769015540914771 0.2478802253893416 0  0.871875 0.871875 0  -0.6868091492840067 0.3270978624973681 0  -0.5363597469565949 0.412994850055505 0  -0.6803734992638302 0.5574295000651103 0  -0.7076253581162534 -0.8803439094224437 0  -0.8778089002295137 -0.5106896447504627 0  -0.3860184984222981 0.530566778071246 0  0.6109900617121508 0.1128453077697081 0  0.3896945134930274 -0.1915382873255086 0  0.7605656944697778 -0.06822134873122943 0  0.3576151269893478 0.5948388411612135 0  -0.5689902680792265 -0.5143596830118065 0  0.6262446286847614 -0.5735657901943212 0  0.2030558252325225 -0.5625263842513452 0  0.6123273142928579 0.7407533260723429 0  0.4016460890123554 -0.3042863223111857 0  -0.59039693199147 0.7578418819188018 0  0.7276932493917544 -0.3705808024528924 0  0.5222536818742854 -0.4713886230400014 0  -0.5101986527137737 0.8848365765607674 0  0.510560172809238 0.5356013299918891 0  -0.3603569195756083 0.75823710606415 0  0.1967279277813232 0.728226870058472 0  -0.6086880986371127 0.1545624071548516 0  -0.38105366729386 0.1511189987807864 0  -0.2944659463671584 -0.7359061804869591 0  0.5060729154966499 -0.3475227845833823 0  -0.09281616240412746 -0.06197858250969457 0  0.7649739583333334 0.6673177083333334 0  0.7628906249999999 0.890234375 0  -0.2666864184909611 0.2585504071132311 0  0.3635064892129658 0.3878003602709461 0  -0.2339409722222222 0.8901937905844155 0  -0.1718792125974916 -0.8957733325456778 0  0.1001768566329531 0.4023510017391879 0  0.3120260172693757 -0.4540546875576884 0  0.7804062804433681 0.1896628610854537 0  0.4087715451998049 0.187961780041608 0  -0.1584963477271457 0.5451611892421655 0  -0.8926817849258324 0.463022006336401 0  0.2338091473445219 -0.07576267331277289 0  0.08171112182813692 -0.2349087687359925 0  0.04635385178956847 -0.1044635073718474 0  -0.4377391632114205 -0.6448874471423088 0  -0.1907678351227189 0.6480215912813945 0  0.300605946475244 0.4741444604171038 0  -0.2145033720757486 -0.06751709909419711 0  0.6069191921170397 -0.005492331448357812 0  0.0214718770761248 0.6032397936031719 0  0.5476675683364878 0.8992752415326501 0  0.4387475014316537 0.9093708953002239 0  -0.4932997685306436 -0.4381009159993523 0  0.2515197695339056 -0.1791673369138964 0  -0.7291666666666667 -0.6088789682539681 0  -0.9166666666666667 -0.6875 0  0.620579540363709 -0.2122431523583302 0  -0.484950136419973 0.6719440339397442 0  0.2857044415400258 0.0137589173127316 0  -0.8945708364098356 -0.288306105327986 0  0.4043102720140535 0.7842914560451557 0  0.04123256238752064 -0.9026968245801402 0  0.2003676884403109 -0.9091888601740487 0  0.1068775558538842 -0.7373377130403223 0  -0.4804566783514427 -0.1763307203045643 0  0.108286342087769 -0.3993789328997278 0  -0.191883080105361 -0.3640821726430649 0  -0.07025064492006244 0.2984876656890053 0  -0.7039324641409584 0.788312126296613 0  -0.7311286585775438 0.8932502354831682 0  0.5171409396884947 0.1503852691889257 0  0.4229392823658633 -0.003216522184234835 0  -0.5621736087218259 -0.919558629836806 0  -0.626474064879544 -0.7266572613636506 0  0.2446828746617422 0.2867616783302419 0  0.1759429608742923 0.4776611759306416 0  -0.3468240303741654 -0.5260416435617549 0  -0.7465808808425306 0.4069574477998361 0  -0.7819962170660292 0.2802441065650652 0  -0.3742623214119594 -0.8547800509641984 0  0.1014498009713561 0.8506721983266377 0  0.4285217620918213 -0.5230190595570253 0  0.4091738370487775 -0.6256346204225141 0  0.78125 0.46875 0  0.90625 0.53125 0  -0.4791801348852565 0.2553992655702126 0  0.7843318610782772 -0.7086046956885941 0  0.8909728264971901 -0.7355183796514634 0  0.7041908166528879 -0.7830649143180282 0  0.7311821352
[...]
<PointData  Scalars="velocity-2"> 
<DataArray  type="Float64"  Name="velocity-2"  format="ascii">0.0000000000000000e+00  0.0000000000000000e+00  1.0000000000000000e+01  1.0000000000000000e+01  3.7980081840473239e+00  1.0000000000000000e+01  3.7975956417748327e+00  0.0000000000000000e+00  3.7980125223302945e+00  0.0000000000000000e+00  1.7408947597487825e+00  1.7410060479083664e+00  0.0000000000000000e+00  1.0000000000000000e+01  6.5471582936727462e+00  1.0000000000000000e+01  6.5473029757512018e+00  6.0318885519255598e+00  2.0519302133313757e+00  2.7057241991009899e+00  6.5479007411358268e+00  1.7922957287613903e+00  4.1502564561593855e+00  1.2905801949159850e+00  7.3618890310077694e+00  8.1337145901817589e+00  9.9233022066863252e-01  2.7056978395890146e+00  4.3098382774251638e+00  7.7134539298966391e+00  1.1070531609728471e+00  5.6191100518811083e+00  9.3474258292981671e-01  5.4287899520006793e+00  3.8949694336293472e+00  2.6282091447832232e+00  5.8472333082116688e+00  2.8172362911847597e+00  4.8965252017122962e+00  8.2164222985112776e+00  3.1440331958175065e+00  7.9314849788510440e+00  8.5322538706791329e-01  0.0000000000000000e+00  1.0000000000000000e+01  8.2162981328480864e+00  8.7400467960715278e-01  1.8857228313199146e+00  5.9689491612654164e+00  5.0686582087068599e+00  2.7054662449782869e+00  8.5333665044684093e-01  8.2159923485003841e+00  0.0000000000000000e+00  0.0000000000000000e+00  1.0000000000000000e+01  2.7059483451960160e+00  1.0000000000000000e+01  0.0000000000000000e+00  5.0690100913804690e+00  1.0000000000000000e+01  2.0993921499485260e+00  4.1097258825715981e+00  3.0928839970059046e+00  1.1922326457436350e+00  1.7667211309225754e+00  1.8399730880430976e+00  7.4612100829322463e+00  6.6534981280182421e+00  3.7875194630434037e+00  4.5365966449490980e+00  4.8072747581621389e+00  3.4090782920790703e+00  5.5520208023807760e-01  5.6682814906502432e-01  1.3997453473875288e+00  1.9388514821640590e+00  8.6556604212243382e+00  8.4352962614340168e+00  6.6054204241151337e+00  4.4089455145258487e+00  6.1776297199571595e-01  3.4413192313156857e+00  6.6014817851133403e+00  5.3021677067718791e+00  6.6243857319877320e+00  7.3618265102727509e+00  8.6792889129893709e+00  1.6686113004914451e+00  4.8072745164172304e-01  6.2940644174753113e-01  8.9828528061133106e+00  2.6294119330434831e+00  8.7383947353541647e+00  7.0858298807230033e+00  9.0578967997263220e+00  3.2322532734099498e+00  4.4407453240372330e-01  9.0622809938879687e+00  1.2904675029948642e+00  4.9813713212801742e+00  5.0434049605760460e+00  4.6562340642927227e+00  5.4881590397782469e+00  9.2544219651261095e-01  0.0000000000000000e+00  1.4470161162678714e+00  7.6879969269895776e+00  5.7813812998124456e+00  1.4814382999852906e+00  0.0000000000000000e+00  5.2570310548920074e-01  2.4469464660256288e+00  2.5449807849823598e+00  3.3092576096263753e+00  3.5648751870432975e+00  7.5025311756459052e+00  6.3257239662496669e+00  5.6427442922429840e+00  1.3567918663574694e+00  2.3353805701335753e+00  7.3615629636532356e+00  3.0805959715815088e+00  4.0194162981524277e+00  1.0000000000000000e+01  2.1777787250720952e+00  2.2009546090925407e+00  1.3704874812406849e+00  4.4082236286654544e+00  4.8046677950323797e+00  5.2478527640904895e+00  2.3915692552259342e+00  5.6133141901662373e+00  6.3827777462951554e+00  5.0061260478995457e+00  3.7757525012094200e+00  5.0995006882686467e-01  4.3949543073196935e+00  2.2033268701671900e+00  2.6046455827306700e+00  3.8205955410699075e+00  3.2323653653164715e+00  3.5211643624340443e+00  9.1004782974502465e+00  8.9534676057492870e+00  9.1005229460665245e+00  3.1242486400169840e+00  5.5668498467709293e+00  7.3158584504770419e-01  8.1456336460634500e+00  4.5780788267039885e+00  9.2548614120029848e-01  2.2107883975329896e+00  7.5184527189389829e+00  3.2127328483777573e+00  4.1569599321161501e+00  7.2926351156390190e+00  6.9015636232366235e+00  5.7818683948451426e+00  6.4386898844981859e+00  9.1285237301818523e+00  3.5253157957269159e+00  4.4141325145501167e+00  9.0579165643675470e+00  2.5395591025057986e+00  4.2453612798960555e-01  0.0000000000000000e+00  1.0000000000000000e+01  9.1003443751493602e+00  4.4518946304776569e-01  8.7078861229826632e-01  9.7456912596354939e-01  1.6460395885009624e+00  1.8428599424981926e+00  6.3809272178453451e+00  4.2455138641734291e-01  0.0000000000000000e+00  7.8204003021737192e+00  2.2138111730853427e+00  2.9251416361037994e+00  1.3155816188264122e+00  2.0226880438858674e+00  3.4099113082058325e+00  3.8163786845178729e+00  9.0996226311508011e+00  2.2104623096553890e+00  1.2904504995606974e+00  1.0000000000000000e+01  3.2324528706503459e+00  1.0000000000000000e+01  1.0000000000000000e+01  1.0000000000000000e+01  7.3614867466617326e+00  4.4082840139024899e+00  1.2904592204775447e+00  0.0000000000000000e+00  0.0000000000000000e+00  0.0000000000000000e+00  0.0000000000000000e+00  1.0000000000000000e+01  1.0000000000000000e+01  7.4125250916616423e+00  3.5023541683914723e+00  4.1808194737205795e-01  9.0780509483014367e+00  1.0728603266926535e+00  1.6083034633881070e+00  1.0954426985440617e+00  1.0003717313378011e+00  4.1499662282878835e-01  2.1685334905262095e+00  7.2684967876144162e+00  5.8702507396521115e+00  8.2901791249695478e+00  5.6800705785679009e+00  1.4905349898061948e+00  7.3699596749363012e+00  4.8148606759745407e+00  7.2772244783946203e+00  5.9411509706022558e+00  1.4136599617894909e+00  8.0613942941059076e+00  6.6893407473773401e+00  1.7038341918396849e+00  6.6147666531672833e+00  2.2672859449980285e+00  4.7814755298483389e+00  1.3484005721166887e+00  2.1875485682551172e+00  2.5263871194155278e+00  6.5861311973842396e+00  3.3741955706149334e+00  8.3211093440339639e+00  8.3064382258729648e+00  2.6378458136335210e+00  5.7148361152467482e+00  2.7716423705669246e+00  3.0308896319587966e+00  4.2836138963997081e+00  5.4159157370438722e+00  8.4291296105942148e+00  5.9838146419362559e+00  3.0877987474268775e+00  3.6433880000054836e-01  4.9806581272737604e+00  4.1920320944758815e+00  4.0190288203965281e+00  1.9722891206023252e+00  2.9510064593022651e+00  5.3513921621164720e+00  2.8514826052666731e+00  7.2412628854260221e+00  3.8993530223482598e+00  6.8529301652223547e+00  6.1660723023262189e+00  1.7659566277636343e+00  5.0773697011532279e+00  9.2549489406457042e-01  2.8278817438121073e-01  7.3322244783694384e+00  1.7966603530366403e+00  5.2673472888848565e+00  3.5793725576467494e-01  5.9571731169219513e+00  3.9941625475346818e+00  4.8003957673500111e+00  4.3172863725347090e+00  1.8131712928094945e+00  4.3241958956712105e+00  2.9463578853219952e+00  3.4751624717186025e+00  1.0131985164611239e+00  9.1854741643945192e-01  6.6565931725107728e+00  6.0697940437007398e+00  1.5150111578248111e+00  1.2853431346490953e+00  5.0397977224397170e+00  4.6717026652673423e+00  2.3198043742525902e+00  8.6512727806457579e-01  7.4287421456007763e-01  2.2135960448121166e+00  4.2899834386627109e+00  6.1040806830765337e+00  5.9863685568024065e+00  8.4352831000472879e+00  9.3245093290992518e+00  1.8178551378088144e+00  8.4568368049321734e+00  9.2149216032159345e+00  7.8991180391691831e+00  8.0855882430939197e+00  2.7807053471342114e-01  3.1611088121269576e-01  7.3519821774284644e-01  2.7722667532471896e+00  6.8201799721188738e-01  3.4752356398992085e-01  3.0809029189455878e-01  5.9226492909465855e-01  5.8616254809576296e-01  9.2275291465263507e+00  2.5554613225032372e+00  1.4449236251946009e+00  5.8036860403488255e+00  3.4479765546838461e+00  3.9042391089409736e+00  3.0508558092900921e+00  7.8933301602203754e-01  5.4248134235176417e+00  4.3879131092796566e+00  2.1673232937476343e+00  2.3892360913867581e+00  2.6647182722297041e-01  6.9492351218442590e+00  9.2461385075626001e+00  9.3278654718161249e+00  9.1033008915626681e+00  1.6343130668586268e+00  1.8436938229531887e+00  1.3971799799788438e+00  5.0186536763142549e+00  8.1849957627364365e+00  2.3953331534684441e+00  5.4682974599685590e+00  4.9808642972231540e+00  3.0816733342171232e+00  6.3820469748025159e+00  3.0010534502910029e+00  1.2800853026156014e+00  8.1077881585000000e+00  2.4547132223449055e+00  8.4271920277980232e+00  5.8557538360590511e-01  9.3298002867560417e+00  2.2743013525588693e-01  1.6873563973837267e+00  7.6594533909682205e+00  7.2055380182698601e+00  7.1219908973421360e+00  3.5099155094312438e+00  7.2313049050479472e-01  2.2175246052296382e-01  8.5793800701953167e+00  9.5301480490477175e+00  2.4728536765564719e+00  5.4191876559429959e+00  6.7268568529697541e+00  6.1589913291944969e+00  9.5298798827127555e+00  8.6555638419248968e+00  5.2601444837568234e+00  4.4294421114998999e+00  1.9732231155740290e+00  8.2987528331078020e-01  7.0733102650833923e-01  1.1458142952063068e+00  9.5295130592960149e+00  2.1252056181020401e-01  2.1276339561372459e-01  9.5301576866829194e+00  9.5278110691241817e+00  4.0972580255127067e+00  2.7326395843084988e-01  9.5273210366699743e+00  7.9380681351556435e+00  7.0812689168068372e+00  4.3499428484515894e+00  4.7303016168026062e+00  7.7847491742394483e+00  5.8441978389636944e+00  5.5820575850500447e+00  3.8069729905295424e+00  4.2072275706253528e+00  2.2173458242894073e-01  1.0737289284148053e+00  7.8922641483868619e+00  2.7139449563122953e+00  3.1206032800909584e+00  1.8355550056659227e+00  3.7740003706501928e+00  4.7325088201532122e+00  1.7157365616799962e+00  2.5549988541779176e+00  2.2097020593288632e+00  2.8208838811130370e+00  7.0526409136742547e+00  6.1806153359237408e+00  8.7235605242539513e+00  3.8257762105410285e+00  1.6940404525749597e+00  6.5417110392271005e-01  2.5196659667935450e+00  8.0972373336859871e+00  8.8271654174811456e+00  2.8280970855615561e-01  2.5110572894225958e-01  6.9718496008254176e+00  7.8462392952251232e+00  2.8373130924556031e+00  7.7605142019700475e+00  3.2292047006621436e+00  5.1401404818066165e+00  6.8341074607352432e+00  1.9969935512408887e+00  1.5547071582091279e+00  3.5833920671326274e+00  3.7480689936410965e+00  3.5002049655718697e+00  4.4962785157075098e+00  1.5468926951893651e+00  1.2276600045180814e+00  1.3519486032183834e+00  1.2485487926253473e+00  1.5771058772698672e+00  1.5136336464674904e+00  3.4525212890633665e+00  3.7839421712548229e+00  2.9682222989130422e+00  6.5598825697042757e+00  5.0953434121753212e+00  1.1502197126028919e+00  1.5557705493566689e+00  8.2000398232337073e+00  3.1841213931636125e+00  6.0098639910509482e+00  6.8219910468088054e+00  6.1458865608703706e+00  1.9731988021248346e+00  4.8756954034526530e+00  2.5062257359962032e+00  2.5250046591470645e+00  4.5707580491050344e+00  3.8373761075519690e+00  4.3845482259395343e+00  4.8288162119818328e+00  3.4331314351895026e+00  2.2224542377316268e+00  2.0912456205868448e+00  8.7118984338214656e+00  9.5461730148904085e+00  5.4443805601951629e+00  2.9873974991686197e-01  3.1257549380501244e+00  6.2565062431456866e+00  2.4119279570448966e+00  8.7571083523935958e+00  2.0090512561710572e+00  5.3483129250069137e+00  2.8071268801802689e+00  1.9359568056422776e+00  9.4900172799101945e+00  3.5005025961497516e-01  4.5277898041895783e+00  7.3601034663652314e+00  9.1270523991009789e+00  2.1200859444715409e-01  8.4801354727870724e+00  2.9649419523768605e+00  2.3737252030443519e+00  1.0975285899684371e+00  2.6728925834004108e-01  5.1497312252595240e+00  7.0825079207849340e-01  1.1512303955279752e+00  1.1742672428014973e+00  3.9619830225429218e+00  3.9702300897713312e+00  7.7841586872676665e+00  7.6133533839413987e+00  5.0690029409308082e+00  1.0000000000000000e+01  2.0232993899313736e+00  6.4814675715553061e-01  6.8640068570667063e+00  2.5698394075033240e+00  2.2088217944252886e+00  3.4772728408217262e+00  1.2657068883933817e+00  1.0705292380346294e+00  7.0387074925655861e+00  8.0111824313248245e+00  1.5991464602778875e+00  1.5318825397989360e+00  5.4188960571929066e+00  2.1518766142812038e+00  4.6066335044123372e+00  2.0386624419819399e+00  3.1501033551418418e+00  2.8828988097495287e+00  3.4469533598227073e+00  1.0000000000000000e+01  9.0078948860344497e+00  6.7503528343490835e+00  6.3086635893480310e+00  4.9619185319914300e-01  7.8059049078047984e+00  7.1157692010244089e+00  5.3092262195833646e+00  3.6728816332488270e+00  1.0704329240794170e+00  9.5221969795168491e+00  3.0382113637744763e+00  2.7352937322979920e+00  9.6541864618356499e-01  6.3224710338765966e-01  6.2085545968993987e+00  7.3139977181480686e+00  2.9105983842735141e+00  3.9644452115587572e+00  4.6058344573752183e+00  4.6671183868776529e+00  4.3747714894910610e+00  1.2695898294850732e+00  7.0871997900438739e+00  0.0000000000000000e+00  1.1801231985571334e+00  1.4366252820376844e+00  3.3134313460215004e+00  2.0220989879385356e+00  2.3898220394961469e+00  8.8383169525465757e+00  5.9957062921087161e+00  6.2949238788589774e+00  3.4219830132785725e+00  2.4000061731709094e-01  7.7508553751179470e+00  3.2265893804761698e+00  3.6912355646407708e+00  3.7156659532767038e+00  1.0000000000000000e+01  7.5383035223269994e+00  7.0005607080364971e+00  7.6502964374629085e+00  2.2904698348730301e+00  9.5492665786237172e+00  8.8775729771700540e+00  9.4751675706513314e+00  0.0000000000000000e+00  9.5491972490638055e+00  3.2594901928209903e+00  8.2047264597623015e-01  1.0688937782195751e+00  5.4540343615223632e+00  5.4779833755922054e+00  5.7569006579792434e+00  5.6566223756516614e+00  9.5006695337500009e+00  8.6792962727324436e+00  4.6672104016071021e+00  4.2356098464887211e+00  5.2989653251281033e-01  2.8090950450221213e+00  4.1555923055868327e+00  2.6437655966773104e+00  1.8083173036503153e+00  7.7111725950055465e-01  1.1235567631862864e+00  7.4551441683674136e-01  2.4232102008927754e+00  7.7976902638361825e+00  1.3302179265082124e+00  5.9929298650387963e+00  0.0000000000000000e+00  1.5832053511351831e+00  9.5138835774577011e+00  4.1829982396546134e-01  5.6993710711164924e+00  4.0514348951014805e+00  2.2403135568037444e+00  4.8653049808298299e+00  4.0698569025051530e+00  3.5218389224251165e+00  3.7966812120062938e+00  6.2468132104570548e+00  9.5279711400142517e+00  6.7223182521112779e-01  8.5985681377892504e+00  4.1335380571919194e+00  9.5392054239577728e+00  4.5400558715132284e+00  5.6177259992266881e+00  3.8206522755549979e+00  1.4880071813913784e+00  3.3835310631370339e+00  1.0000000000000000e+01  4.1686122993623522e+00  7.5789267754857281e-01  5.3517858932756273e+00  9.5222462455647394e-01  3.2276763912757143e+00  8.5863365421371025e+00  6.5502145133969032e+00  8.4555157995602792e-01  7.7423140161602100e-01  2.3634322845190194e+00  6.3372515020492293e-01  1.4782343798953075e+00  1.7517687974772551e+00  1.6042331374791683e+00  1.9346118549731708e+00  1.8550853942374812e+00  9.5278538736433482e+00  1.0000000000000000e+01  9.4088680186081763e-01  4.1802131863589791e+00  7.3711509437338032e+00  6.4258333086933908e+00  6.0654233054728026e+00  6.8041163609190427e+00  8.9145691456379978e+00  2.9642051987309741e+00  8.2631508186013320e+00  2.7487146185217544e+00  2.9558197109945796e+00  5.0792800714987214e+00  8.7540122375050089e+00  4.4773046645568924e+00  2.2500645076143804e+00  7.6057377126422461e+00  3.2143222499695421e+00  4.6385713242906537e+00  7.6573586931098667e+00  7.4748353967671104e+00  4.0965977191309433e+00  0.0000000000000000e+00  8.7793681789310014e+00  0.0000000000000000e+00  7.3415639190332893e+00  3.5111583559481967e+00  1.9782070191426919e+00  1.9947056943318302e+00  2.0271109793836306e+00  5.6597816318137122e+00  3.1737014411311577e+00  6.9488204353868079e+00  8.9125267260818941e-01  2.8694893572252798e+00  7.9539723668791735e+00  6.6536671616539618e+00  9.2535714448372697e-01  3.1848415864636475e+00  3.2285116928540099e+00  4.0473234252145263e+00  8.4289289102278584e+00  7.0411366078206772e+00  5.7845933572103041e+00  5.1741512147341098e+00  7.8710983727145418e+00  9.0814558933876164e+00  9.5486716496548567e+00  6.5431081942158427e+00  5.1001601032701060e-01  3.7979318865524951e+00  2.3295393778265452e-01  4.4062020781110220e+00  9.5488048979966322e+00  1.0000000000000000e+01  1.0000000000000000e+01  8.6556366184952100e+00  2.4546043065372687e+00  7.7840193058559564e+00  0.0000000000000000e+00  2.1202755675661272e-01  4.0968383236758665e+00  0.0000000000000000e+00  1.0000000000000000e+01  1.9730161001676270e+00  8.6554561097705491e+00  1.0000000000000000e+01  6.1579692850043131e+00  5.4183320916156061e+00  1.0000000000000000e+01  1.0000000000000000e+01  1.0000000000000000e+01  0.0000000000000000e+00  0.0000000000000000e+00  0.0000000000000000e+00  3.5098562470946950e+00  0.0000000000000000e+00  2.4542962242468409e+00  6.9488500194638450e+00  0.0000000000000000e+00  6.3810589957206976e-01  6.3807792254857509e-01  0.0000000000000000e+00  1.5137645837027827e+00  4.7317464581253050e+00  0.0000000000000000e+00  6.1584924360231916e+00  1.0000000000000000e+01  1.0000000000000000e+01  9.5492319799868692e+00  0.0000000000000000e+00  4.7316334101364443e+00  0.0000000000000000e+00  3.5102405626284532e+00  1.0000000000000000e+01  1.0000000000000000e+01  1.6236831753259582e+00  6.6592925443628745e+00  1.8419529615881861e-01  5.0087247703162134e+00  4.6255537772629811e+00  7.2113860324612737e+00  2.8312216561984305e+00  1.5224192653237771e+00  1.6968260545919995e+00  1.3569510471139228e+00  8.5805348085333488e+00  1.1801357305398936e+00  1.9990787301625368e-01  1.0024965218343185e+00  7.9979575546945565e+00  4.3074184525377113e-01  5.3703424540866940e-01  2.0852132439502083e-01  4.3373515872920559e-01  3.1820859585359229e-01  4.7782897651521361e-01  4.4426667676899340e-01  8.6241491304918760e+00  8.1445188212946817e+00  1.6167939104203246e+00  4.4401433850970617e+00  9.5022816760202318e+00  6.2709507188757163e-01  5.2675910710379048e+00  3.1090108272404535e+00  9.4999348041922527e-01  2.8568856132759746e+00  2.0411276657092423e+00  2.5818419976616460e+00  6.7639474301175975e+00  8.8450276454236452e+00  1.4762966354273881e+00  8.3646875711742776e+00  7.9743867359944502e+00  5.6499186697567705e+00  2.4741616279952914e+00  3.6223198488151240e+00  5.9443630158543064e+00  1.8441392861220069e+00  4.1895053755365899e+00  8.5823501885288120e+00  2.0250470878887050e+00  5.1009256498016002e+00  7.5520491975299482e+00  6.8687703012676389e+00  7.4749632383648859e+00  2.0432979724768721e-01  1.8260213519683668e+00  1.6068394730388369e+00  1.4017970003325952e+00  9.0791399112456761e-01  1.1535042645907001e+00  3.0206463963003563e+00  4.0218569857520405e+00  3.6804818865100284e+00  6.9162394801129565e+00  9.1049187193536962e+00  8.7874094010424599e+00  6.5015105269654807e+00  6.2858136216183365e+00  2.8920347725210012e+00  4.0503475335753256e+00  8.3009050305500087e-01  9.5967477932046297e-01  1.2789790791500566e+00  1.1450089002860380e+00  1.3837099893801292e+00  1.3113612235487238e+00  1.1941082485708376e+00  5.2279403213474342e+00  5.1410694227761553e+00  2.8037453851391212e+00  4.7008292297727303e+00  8.5335143879631747e+00  2.4047825829818921e+00  2.0620798353612804e+00  9.5986236122067083e+00  7.9921931624893672e+00  8.2421606318730785e+00  4.2271743074452797e+00  6.2241764080675632e-01  5.3054910720603345e+00  3.6569302286312251e+00  2.3673773955182669e+00  5.9197182430199016e+00  6.9817358899674042e+00  1.2151082496345835e+00  7.7620580340235739e+00  7.4289927061652232e+00  6.9042012399556123e+00  9.5320099087425323e+00  8.2271391704474066e+00  8.3809992111219760e+00  8.8046354351841352e+00  7.8371791007090801e+00  2.1985570107714354e+00  7.7903945881507353e-01  1.1426846716039294e+00  9.5468317565930505e+00  2.2715865327375679e+00  1.1518453038776206e+00  5.3438240382570870e+00  5.9803121209247267e+00  3.3130480766712154e+00  2.6213711241237267e+00  3.5834395126301994e+00  1.5558951207640537e+00  1.6516083498240421e+00  1.5003158513900479e+00  1.6911788132153419e-01  2.1486232739717095e+00  7.4630772484147849e+00  6.9765524329875630e+00  9.8280892672277009e-01  8.8940627025148942e+00  7.0419030372545253e+00  7.8587260192362960e+00  6.3684514079850025e+00  5.0831274033837825e+00  1.1783323374581272e+00  1.0058212287116899e+00  7.9453304529623892e-01  8.5456998151944585e-01  4.7331248471443645e+00  6.84022