<?xml version="1.0"?>
<VTKFile type="UnstructuredGrid"  version="0.1"  >
<UnstructuredGrid>
<Piece  NumberOfPoints="2513" NumberOfCells="4852">
<Points>
<DataArray  type="Float64"  NumberOfComponents="3"  format="ascii">-1 1 0  -1 -1 0  1 -1 0  1 1 0  0 -1 0  1 0 0  0 1 0  -1 0 0  0 0 0  -1 -0.5 0  -0.5 -1 0  -0.5 1 0  -1 0.5 0  1 -0.5 0  0.5 -1 0  1 0.5 0  0.5 1 0  0.4166666666666666 -0.4166666666666667 0  -0.4166666666666667 0.4166666666666667 0  -0.25 -0.5 0  0.5 0.25 0  -0.4861111111111112 -0.06944444444444445 0  0.0732758620689655 0.507183908045977 0  -0.625 -0.625 0  0.625 0.625 0  0.7380952380952381 -0.25 0  -0.7099116161616161 0.2105429292929293 0  -0.25 0.7380952380952381 0  0.105392156862745 -0.6348039215686275 0  0.6770833333333334 -0.6770833333333333 0  -0.6770833333333334 0.6770833333333334 0  0.3472222222222222 -0.06944444444444446 0  -0.7264957264957265 -0.3044871794871795 0  0.3141940982507127 0.7297313660835709 0  0.02049587951122483 -0.3227479397556124 0  -0.2690972222222223 0.1475694444444444 0  0.3859500089908372 -0.7274430156831472 0  -0.2228477945123298 -0.1761765495248019 0  0.2182539682539683 0.1884920634920635 0  0.75 0.375 0  -0.145442219440968 -0.7602211097204841 0  0.7088913690476191 0.0427827380952381 0  -0.75 -1 0  -1 -0.75 0  1 0.75 0  0.75 1 0  -0.7439982703698937 -0.04614153195464455 0  -0.4609235096577606 -0.3356498099556895 0  0.4063134471431929 0.4895621842856023 0  0.25 -1 0  -0.25 -1 0  -0.75 1 0  0.75 -1 0  -1 -0.25 0  -1 0.25 0  1 -0.25 0  -0.25 1 0  1 -0.75 0  -1 0.75 0  0.25 1 0  1 0.25 0  -0.4041423272138783 -0.7597141090712928 0  0.06500839607911253 0.7578103030529481 0  -0.1572801182352047 0.3838997021864289 0  -0.6528005242053915 0.4409494757946086 0  -0.4930160984848485 0.1544744318181818 0  -0.4732142857142858 0.7752976190476191 0  0.6398809523809523 -0.4538690476190476 0  0.5166054117396399 -0.2161233620965164 0  -0.002273787244753427 0.2232363985975174 0  0.1500564496765022 -0.1524955293952667 0  0.2016720420046758 -0.4410343282803009 0  -0.08495178036419618 0.6274139771124571 0  -0.8367311471133162 0.3642591720794645 0  -0.8333333333333334 -0.625 0  -0.594323836800685 -0.8231079456002283 0  -0.4466957714776065 -0.5349126855671806 0  0.8125 0.5625 0  0.78125 0.78125 0  0.5091392650016769 0.7947130883338923 0  0.125 -0.8382681931833136 0  -0.8184523809523809 -0.8184523809523809 0  -0.07781530426104531 -0.5819319697006881 0  0.5085055196703295 0.04967610411902112 0  0.2918471072074933 -0.276017202318847 0  0.5120763537765269 -0.5898771553229597 0  0.625 -0.8585349462365591 0  0.8158532234335381 -0.8158532234335381 0  -0.5198088446315396 0.5739411553684605 0  -0.8585349462365591 0.625 0  -0.8150493805516597 0.8156205699829586 0  0.8585349462365591 -0.625 0  -0.2688268348649726 0.5439331383603209 0  0.8242100426758139 -0.4436043596336612 0  0.5833756314287952 0.4479378157143976 0  0.8690476190476191 -0.125 0  -0.125 0.8690476190476191 0  -0.8692745600729823 0.125 0  0.8696725120759167 0.125 0  -0.625 0.8711516477451908 0  0.2339522463269718 0.3879558377955778 0  0.2453709502295031 0.5655822922838026 0  0.1730610651637797 0.02021709580868947 0  0.3245402594056757 -0.5644672020485209 0  -0.7291666666666666 -0.4816595441595442 0  -1 -0.375 0  -0.5811140848639904 -0.2127276307675001 0  0.673332592838314 0.2158348143233718 0  0.375 1 0  -0.5714768890989919 0.2985103444040069 0  -1 -0.125 0  -0.8453692574786325 -0.1875 0  -0.3144549134065865 -0.02408675326008025 0  -0.2898414972096258 -0.3336092734780093 0  -0.1075052092206287 -0.4224330421314983 0  -0.05043970703604117 -0.1652278959397459 0  0.6459672950297897 -0.1113415301525317 0  0.4645210271029513 0.6398480556579343 0  0.3512863754411909 0.0937979496253573 0  -0.6063160985568274 0.03891469652249891 0  -0.3428819444444445 0.8690476190476191 0  0.625 1 0  -0.1602164796159982 0.02697860906625157 0  0.04648110064133829 -0.4808416424239687 0  1 0.875 0  -0.3836102479201657 0.6484936449177356 0  -0.3776011723096096 0.263078478984336 0  -0.6024978259969829 -0.3949628096211138 0  0.125 1 0  0.2010781308272777 0.8456221018461906 0  0.2822509696388829 -0.845902544691141 0  -0.3285533674953515 -0.6289773550938936 0  0.3461306793221754 0.278777492464833 0  0.4737475672408696 -0.8508448959534423 0  0.2384632828836344 -0.7029523187242811 0  -0.004777287059791593 0.3759269695907358 0  -0.8499735021850066 -0.3912320205328522 0  0.1222536293721587 0.2963971539625205 0  -0.3769456520999688 -0.203572526805711 0  -0.2749617205755651 -0.8464290792698902 0  0.004805888512766143 -0.747174355248311 0  -0.125 -1 0  -0.06001061822252458 -0.8724007765244854 0  0.875 0.4375 0  0.854421179608893 0.271342359217786 0  0.875 1 0  -0.1499861095763589 0.2358309656934888 0  0.3381943639137225 0.8663061796405532 0  -0.7853090110442228 0.4998412775277108 0  0.7398165998560814 -0.5535192694951373 0  0.1580042122341573 -0.3100246140259917 0  -0.7291666666666667 -0.7142857142857142 0  -0.375 -1 0  0.6483368386154684 0.8514905990110488 0  -0.1295370103291928 -0.2826118305021242 0  0.07458201853700455 0.1123894386563915 0  0.6146465857036327 -0.3161203659316075 0  0.5551898493894731 -0.740296118159085 0  0.375 -1 0  0.482702798370208 -0.084133350091034 0  0.87890625 0.68359375 0  -0.05917195534525846 0.4971092425697621 0  0.1260710309213975 0.6343750312956699 0  0.8690476190476191 -0.3077066815262848 0  -0.2912010232560567 0.3668168386732139 0  -0.875 1 0  -1 0.875 0  1 -0.875 0  0.875 -1 0  -0.8689564281364567 -0.006189266075306407 0  -0.7449425635110547 0.08458938160051771 0  -0.7150266761936593 -0.1739444581417552 0  -0.5260034831318311 -0.711099823962112 0  -0.4724626808827322 -0.871722230709409 0  0.4734436795977052 0.377714794132168 0  -0.875 -1 0  -1 -0.875 0  0.6927189078571988 0.5156567235715964 0  -0.3742497615796874 -0.4296005251260107 0  -0.1969436423297711 -0.6387157229772615 0  -0.6179496409766825 -0.08933356056510935 0  -0.424405057115988 0.04452428810878029 0  -0.08479048335844169 0.1279607007132633 0  0.003830300099055113 0.8712085230656206 0  0.8748778838820267 -1.379218479898026e-05 0  -0.375 1 0  -0.625 1 0  1 0.125 0  -0.125 1 0  1 -0.375 0  1 -0.125 0  1 -0.625 0  0.625 -1 0  0.125 -1 0  -0.625 -1 0  -1 -0.625 0  -1 0.125 0  -1 0.375 0  -1 0.625 0  1 0.375 0  1 0.625 0  0.6325660748712082 0.3335187599557389 0  -0.06420945895056573 0.7549874027425891 0  -0.8769015540914771 0.2478802253893416 0  0.871875 0.871875 0  -0.6868091492840067 0.3270978624973681 0  -0.5363597469565949 0.412994850055505 0  -0.6803734992638302 0.5574295000651103 0  -0.7076253581162534 -0.8803439094224437 0  -0.8778089002295137 -0.5106896447504627 0  -0.3860184984222981 0.530566778071246 0  0.6109900617121508 0.1128453077697081 0  0.3896945134930274 -0.1915382873255086 0  0.7605656944697778 -0.06822134873122943 0  0.3576151269893478 0.5948388411612135 0  -0.5689902680792265 -0.5143596830118065 0  0.6262446286847614 -0.5735657901943212 0  0.2030558252325225 -0.5625263842513452 0  0.6123273142928579 0.7407533260723429 0  0.4016460890123554 -0.3042863223111857 0  -0.59039693199147 0.7578418819188018 0  0.7276932493917544 -0.3705808024528924 0  0.5222536818742854 -0.4713886230400014 0  -0.5101986527137737 0.8848365765607674 0  0.510560172809238 0.5356013299918891 0  -0.3603569195756083 0.75823710606415 0  0.1967279277813232 0.728226870058472 0  -0.6086880986371127 0.1545624071548516 0  -0.38105366729386 0.1511189987807864 0  -0.2944659463671584 -0.7359061804869591 0  0.5060729154966499 -0.3475227845833823 0  -0.09281616240412746 -0.06197858250969457 0  0.7649739583333334 0.6673177083333334 0  0.7628906249999999 0.890234375 0  -0.2666864184909611 0.2585504071132311 0  0.3635064892129658 0.3878003602709461 0  -0.2339409722222222 0.8901937905844155 0  -0.1718792125974916 -0.8957733325456778 0  0.1001768566329531 0.4023510017391879 0  0.3120260172693757 -0.4540546875576884 0  0.7804062804433681 0.1896628610854537 0  0.4087715451998049 0.187961780041608 0  -0.1584963477271457 0.5451611892421655 0  -0.8926817849258324 0.463022006336401 0  0.2338091473445219 -0.07576267331277289 0  0.08171112182813692 -0.2349087687359925 0  0.04635385178956847 -0.1044635073718474 0  -0.4377391632114205 -0.6448874471423088 0  -0.1907678351227189 0.6480215912813945 0  0.300605946475244 0.4741444604171038 0  -0.2145033720757486 -0.06751709909419711 0  0.6069191921170397 -0.005492331448357812 0  0.0214718770761248 0.6032397936031719 0  0.5476675683364878 0.8992752415326501 0  0.4387475014316537 0.9093708953002239 0  -0.4932997685306436 -0.4381009159993523 0  0.2515197695339056 -0.1791673369138964 0  -0.7291666666666667 -0.6088789682539681 0  -0.9166666666666667 -0.6875 0  0.620579540363709 -0.2122431523583302 0  -0.484950136419973 0.6719440339397442 0  0.2857044415400258 0.0137589173127316 0  -0.8945708364098356 -0.288306105327986 0  0.4043102720140535 0.7842914560451557 0  0.04123256238752064 -0.9026968245801402 0  0.2003676884403109 -0.9091888601740487 0  0.1068775558538842 -0.7373377130403223 0  -0.4804566783514427 -0.1763307203045643 0  0.108286342087769 -0.3993789328997278 0  -0.191883080105361 -0.3640821726430649 0  -0.07025064492006244 0.2984876656890053 0  -0.7039324641409584 0.788312126296613 0  -0.7311286585775438 0.8932502354831682 0  0.5171409396884947 0.1503852691889257 0  0.4229392823658633 -0.003216522184234835 0  -0.5621736087218259 -0.919558629836806 0  -0.626474064879544 -0.7266572613636506 0  0.2446828746617422 0.2867616783302419 0  0.1759429608742923 0.4776611759306416 0  -0.3468240303741654 -0.5260416435617549 0  -0.7465808808425306 0.4069574477998361 0  -0.7819962170660292 0.2802441065650652 0  -0.3742623214119594 -0.8547800509641984 0  0.1014498009713561 0.8506721983266377 0  0.4285217620918213 -0.5230190595570253 0  0.4091738370487775 -0.6256346204225141 0  0.78125 0.46875 0  0.90625 0.53125 0  -0.4791801348852565 0.2553992655702126 0  0.7843318610782772 -0.7086046956885941 0  0.8909728264971901 -0.7355183796514634 0  0.7041908166528879 -0.7830649143180282 0  0.7311821352
[...]
<PointData  Scalars="f_31-2"> 
<DataArray  type="Float64"  Name="f_31-2"  format="ascii">0.0000000000000000e+00  0.0000000000000000e+00  1.0000000000000000e+01  1.0000000000000000e+01  5.0000021101832974e+00  1.0000000000000000e+01  5.0000021109401631e+00  0.0000000000000000e+00  5.0000021101856182e+00  0.0000000000000000e+00  2.5000014929228187e+00  2.5000014925117680e+00  0.0000000000000000e+00  1.0000000000000000e+01  7.5000014926693543e+00  1.0000000000000000e+01  7.5000014925180727e+00  7.0833350071177046e+00  2.9166683402429063e+00  3.7500019493330945e+00  7.5000014918588143e+00  2.5694459686450366e+00  5.3663814062845487e+00  1.8750011720115194e+00  8.1250011720577433e+00  8.6904770340421607e+00  1.4504428477919005e+00  3.7500019494040133e+00  5.5269628651972065e+00  8.3854176916477670e+00  1.6145843580742176e+00  6.7361129151227539e+00  1.3675222462363923e+00  6.5709723493786552e+00  5.1024815064450060e+00  3.6545158131722619e+00  6.9297517789414256e+00  3.8857630094182913e+00  6.0912718283995613e+00  8.7500008073895490e+00  4.2727909577807299e+00  8.5444577767779553e+00  1.2500008076621785e+00  0.0000000000000000e+00  1.0000000000000000e+01  8.7500008075493092e+00  1.2800094740817674e+00  2.6953840322311562e+00  7.0315689307439442e+00  6.2500019500644282e+00  3.7500019499667836e+00  1.2500008072653939e+00  8.7500008078335991e+00  0.0000000000000000e+00  0.0000000000000000e+00  1.0000000000000000e+01  3.7500019488678382e+00  1.0000000000000000e+01  0.0000000000000000e+00  6.2500019495496284e+00  1.0000000000000000e+01  2.9792900626562977e+00  5.3250440792434013e+00  4.2136014551238938e+00  1.7359984737050633e+00  2.5349210162638158e+00  2.6339301249817670e+00  8.1994058931625613e+00  7.5830285109560940e+00  4.9886331735903662e+00  5.7502843005382891e+00  6.0083622154901697e+00  4.5752431896548149e+00  8.1634479963279549e-01  8.3333387937132275e-01  2.0283820711166949e+00  2.7665227539306971e+00  9.0625006123955902e+00  8.9062507106932749e+00  7.5456977957636555e+00  5.6250020689794562e+00  9.0773868876913999e-01  4.6109255725318992e+00  7.5425290704850934e+00  6.4592374279121989e+00  7.5603832323245719e+00  8.1250011721672415e+00  9.0792667190280802e+00  2.4009572217532948e+00  7.0732573381612140e-01  9.2475370167727100e-01  9.2926751961612197e+00  3.6558677500245862e+00  9.1210507887874446e+00  7.9168794413874997e+00  9.3452385262226887e+00  4.3750020700615080e+00  6.5362762995122903e-01  9.3483629894013394e+00  1.8750011724046609e+00  6.1697632008471377e+00  6.2268567068106497e+00  5.8653073587291589e+00  6.6227031385031117e+00  1.3541675374881836e+00  0.0000000000000000e+00  2.0944308656947030e+00  8.3666639998993553e+00  6.8750017554944085e+00  2.1426168702005750e+00  0.0000000000000000e+00  7.7315421997289158e-01  3.4277272908509460e+00  3.5507944086318375e+00  4.4624760337463396e+00  4.7478035680608182e+00  8.2298375889996294e+00  7.3226067077891086e+00  6.7564336742778783e+00  1.9684207307883348e+00  3.2855920888962609e+00  8.1250011724490090e+00  4.1989196452249455e+00  5.2324076078905453e+00  1.0000000000000000e+01  3.0819504987032906e+00  3.1119958877128289e+00  1.9875121035350423e+00  5.6250020701603329e+00  6.0053926594766542e+00  6.4112567544268808e+00  3.3572349973049924e+00  6.7306552017597783e+00  7.3687393884970325e+00  6.1923183779013282e+00  4.9761156744919175e+00  7.5013298171011322e-01  5.6112702176942921e+00  3.1152734903869197e+00  3.6251933131581078e+00  5.0240315526413761e+00  4.3750020698152303e+00  4.6999490098737491e+00  9.3750004116084824e+00  9.2721063763322675e+00  9.3750004115883900e+00  4.2500715040682611e+00  6.6909736386850387e+00  1.0734556426816755e+00  8.6990838376789181e+00  5.7900231064572862e+00  1.3541675372998065e+00  3.1250017545248410e+00  8.2416853003138204e+00  4.3523170149441244e+00  5.3729121876666710e+00  8.0732341290808307e+00  7.7759506041053914e+00  6.8750017549111124e+00  7.4135155240146586e+00  9.3945316488290107e+00  4.7041423238272930e+00  5.6303572232629442e+00  9.3452385261718920e+00  3.5439967764095281e+00  6.2500041187204292e-01  0.0000000000000000e+00  1.0000000000000000e+01  9.3750004117660222e+00  6.5521829055855230e-01  1.2752880053449143e+00  1.4248675322353443e+00  2.3699840141945478e+00  2.6376881504911203e+00  7.3672199509138983e+00  6.2500041176312504e-01  0.0000000000000000e+00  8.4635955185565503e+00  3.1287529476439628e+00  4.0152837979030132e+00  1.9102529865387936e+00  2.8779763722777596e+00  4.5760496745387069e+00  5.0191536099575877e+00  9.3743898314034020e+00  3.1250017553839911e+00  1.8750011724657534e+00  1.0000000000000000e+01  4.3750020696366532e+00  1.0000000000000000e+01  1.0000000000000000e+01  1.0000000000000000e+01  8.1250011725263569e+00  5.6250020699996188e+00  1.8750011724437061e+00  0.0000000000000000e+00  0.0000000000000000e+00  0.0000000000000000e+00  0.0000000000000000e+00  1.0000000000000000e+01  1.0000000000000000e+01  8.1628315255299615e+00  4.6789548044709663e+00  6.1549263509230856e-01  9.3593754218557326e+00  1.5659552505962939e+00  2.3182026698427940e+00  1.5981335191947330e+00  1.4618741445251162e+00  6.1095590141115197e-01  3.0699092416772102e+00  8.0549515189457530e+00  6.9484742934495074e+00  8.8028292473189538e+00  6.7880774205332788e+00  2.1550499812572741e+00  8.1312243123658714e+00  6.0152811299071667e+00  8.0616377784283468e+00  7.0082321488502606e+00  2.0480166059812803e+00  8.6384671221760279e+00  7.6112698482969812e+00  2.4490082041757391e+00  7.5528023310981149e+00  3.1982171832472739e+00  5.9836416487135704e+00  1.9565607237672651e+00  3.0947334067405676e+00  3.5276721563795519e+00  7.5303660552686047e+00  4.5359212756081870e+00  8.8248705529377478e+00  8.8144538928310734e+00  3.6665698353953422e+00  6.8175342208964320e+00  3.8302971076111518e+00  4.1406059704182203e+00  5.5008863670304811e+00  6.5601319485205334e+00  8.9020321157964304e+00  7.0438594160628201e+00  4.2075203064293385e+00  5.3659142948451888e-01  6.1690477059923055e+00  5.4085577013286699e+00  5.2317713631980034e+00  2.8113058147129308e+00  4.0461628402357261e+00  6.5030316115724274e+00  3.9274851317218955e+00  8.0345971821788069e+00  5.1073614946284396e+00  7.7383392177499184e+00  7.1937391358799294e+00  2.5335026645626120e+00  6.2576007953370327e+00  1.3541675372575794e+00  4.1666694213285055e-01  8.1028988861664448e+00  2.5752508445240285e+00  6.4285241088575464e+00  5.2714616579051909e-01  7.0215530585998920e+00  5.2061649177084597e+00  6.0018404489320352e+00  5.5343898593198677e+00  2.5977181454192277e+00  5.5414337900003297e+00  4.0405866141558331e+00  4.6487488724665988e+00  1.4803386254982815e+00  1.3443575723143137e+00  7.5857061498264420e+00  7.1146980730761324e+00  2.1891332957699210e+00  1.8676308435741718e+00  6.2234163296170877e+00  5.8797168341457935e+00  3.2658816530212187e+00  1.2670964136514260e+00  1.0900196233472854e+00  3.1286901488897669e+00  5.5072510879910617e+00  7.1426104597929241e+00  7.0458708743108058e+00  8.9062507106864341e+00  9.5312503095693568e+00  2.6041008657490878e+00  8.9216600065750207e+00  9.4548644920354779e+00  8.5209550288073217e+00  8.6559115411160725e+00  4.0970719263267119e-01  4.6568761726750924e-01  1.0787437392825912e+00  3.8314961127373048e+00  1.0014489695261231e+00  5.1182119390813940e-01  4.5386934747805313e-01  8.7053628419955542e-01  8.6160242029364009e-01  9.4636619472933496e+00  3.5640673560374863e+00  2.0917909503214167e+00  6.8929348967069943e+00  4.6183525680870927e+00  5.1123592494448156e+00  4.1641479740589977e+00  1.1573672476262873e+00  6.5674719988874104e+00  5.6046453836230059e+00  3.0685161518679713e+00  3.3543804568000026e+00  3.9263002437938860e-01  7.8125013384329707e+00  9.4766492447690975e+00  9.5335511053152633e+00  9.3769535353184015e+00  2.3538212517070654e+00  2.6388802368876938e+00  2.0250221727991193e+00  6.2036649956254788e+00  8.7276656578263090e+00  3.3622360825376232e+00  6.6056006615108904e+00  6.1690237945083330e+00  4.2005316494974210e+00  7.3680343282558738e+00  4.1056078631474531e+00  1.8603626955967858e+00  8.6720207333224941e+00  3.4375018608492600e+00  8.9005188258499714e+00  8.6071903197495059e-01  9.5349102283638878e+00  3.3515431624875758e-01  2.4265915182638076e+00  8.3455796037565424e+00  8.0076678000184760e+00  7.9444587271599021e+00  4.6875021001679178e+00  1.0612328550977781e+00  3.2681381608043653e-01  9.0086323013107776e+00  9.6741814957012817e+00  3.4606241349875040e+00  6.5625018607643186e+00  7.6406427809723638e+00  7.1875016305674118e+00  9.6740445874849801e+00  9.0625006124725331e+00  6.4221013874979480e+00  5.6454164625492762e+00  2.8125016311286095e+00  1.2161113495122582e+00  1.0382915711966558e+00  1.6700434955136998e+00  9.6737901820171377e+00  3.1321887837023060e-01  3.1358038257724813e-01  9.6741814956891385e+00  9.6726192642441795e+00  5.3125021001317743e+00  4.0263254133601539e-01  9.6722472406568336e+00  8.5493017493403585e+00  7.9136577288462986e+00  5.5669604306093472e+00  5.9350797900329884e+00  8.4375009944999739e+00  6.9271740040179415e+00  6.7042629113100647e+00  5.0090122866046780e+00  5.4241632699925209e+00  3.2681381615519345e-01  1.5670979759274495e+00  8.5159847155682371e+00  3.7601075141744462e+00  4.2458831287093366e+00  2.6279470002766185e+00  4.9739890017967756e+00  5.9375020190482042e+00  2.4652320984987077e+00  3.5635681145452054e+00  3.1236236853384556e+00  3.8901762401985582e+00  7.8916586414150451e+00  7.2055686660229066e+00  9.1104264902680345e+00  5.0294934084528808e+00  2.4356811012923982e+00  9.6088962656663723e-01  3.5191801901222308e+00  8.6643101288740549e+00  9.1833930696796475e+00  4.1666694204689053e-01  3.7002142094184798e-01  7.8300296775252223e+00  8.4825059694775327e+00  3.9099724635199471e+00  8.4197279829698477e+00  4.3708944514524148e+00  6.3144550696191759e+00  7.7237916971376839e+00  2.8441282022007575e+00  2.2440519676815840e+00  4.7679048626536975e+00  4.9465958317627239e+00  4.6764715444888960e+00  5.7104014841867796e+00  2.2334126809790620e+00  1.7861201450926882e+00  1.9614188431735944e+00  1.8156669484739560e+00  2.2751221289359589e+00  2.1875013392774396e+00  4.6236280887791885e+00  4.9850852288889298e+00  4.0667349586178814e+00  7.5094832769059092e+00  6.2737287300178890e+00  1.6761749606533090e+00  2.2455255654026578e+00  8.7382456480946651e+00  4.3193045430648231e+00  7.0654263737457450e+00  7.7144328828181070e+00  7.1770878210067357e+00  2.8125016311945457e+00  6.0718290181436441e+00  3.5025617592407117e+00  3.5256934588409039e+00  5.7827927399713648e+00  5.0415866616760932e+00  5.6012620911843731e+00  6.0282055878695742e+00  4.6018720303467378e+00  3.1399882578592178e+00  2.9687516949186916e+00  9.1021914390258818e+00  9.6853296524026433e+00  6.5845703281260546e+00  4.4009804122719781e-01  4.2517129637533388e+00  7.2670322486463270e+00  3.3833307619446384e+00  9.1340997895704028e+00  2.8598479490160309e+00  6.5003494313674430e+00  3.8736241905349829e+00  2.7628570481414312e+00  9.6463375995004323e+00  5.1554666540061744e-01  5.7412808591395867e+00  8.1236429869185578e+00  9.3936438655096914e+00  3.1250020692459729e-01  8.9381859694239356e+00  4.0625020186424470e+00  3.3345640893678112e+00  1.6010365018804651e+00  3.9384454678835212e-01  6.3228381408829835e+00  1.0396247728033829e+00  1.6775657616947752e+00  1.7103404552186927e+00  5.1727406517132710e+00  5.1812253873004996e+00  8.4375009951157871e+00  8.3118261022389763e+00  6.2497963823134643e+00  1.0000000000000000e+01  2.8787554735669252e+00  9.5209027715496786e-01  7.7468702898279558e+00  3.5817662527417689e+00  3.1222216448514133e+00  4.6510783159857052e+00  1.8399217395432694e+00  1.5625009946645598e+00  7.8808615786695624e+00  8.6021705424600086e+00  2.3055457154805130e+00  2.2125240709389709e+00  6.5625018610757460e+00  3.0477980091338814e+00  5.8177468006191582e+00  2.8994206784990175e+00  4.2797615322105127e+00  3.9649400708786513e+00  4.6171881628739024e+00  1.0000000000000000e+01  9.3102346828578657e+00  7.6588097377804125e+00  7.3092377124516714e+00  7.2996970379082926e-01  8.4529986331828262e+00  7.9395531651412359e+00  6.4654561682387017e+00  4.8654910138379064e+00  1.5625009950082229e+00  9.6687377717330172e+00  4.1495212367292043e+00  3.7863660158825616e+00  1.4116960891084291e+00  9.2885596369221290e-01  7.2281845043014750e+00  8.0892208628994826e+00  3.9981122116002203e+00  5.1751999048840442e+00  5.8165336449595006e+00  5.8754933623752228e+00  5.5916126777647976e+00  1.8454592685928899e+00  7.9179474451257317e+00  0.0000000000000000e+00  1.7187510848624756e+00  2.0800827616163926e+00  4.4672438215513681e+00  2.8772297870722165e+00  3.3552319512459539e+00  9.1912315517635577e+00  7.0536743432761950e+00  7.2983503640534346e+00  4.5895537918015510e+00  3.5366286832557609e-01  8.4128762945738647e+00  4.3682671795139631e+00  4.8852252078935567e+00  4.9119137122308061e+00  1.0000000000000000e+01  8.2563482692203074e+00  7.8517895477865318e+00  8.3389738386594203e+00  3.2279716950728350e+00  9.6875002067885472e+00  9.2187505125161646e+00  9.6360586692046208e+00  0.0000000000000000e+00  9.6875002068578837e+00  4.4059208258839941e+00  1.2024810711970120e+00  1.5601636465385758e+00  6.5928690903828349e+00  6.6139395148897302e+00  6.8536518508899213e+00  6.7681239238230217e+00  9.6537542562154481e+00  9.0791835445162103e+00  5.8752681399619986e+00  5.4530279561067587e+00  7.7935183482279446e-01  3.8758345547055302e+00  5.3715829207075014e+00  3.6737361301988902e+00  2.5910457464901966e+00  1.1309531148999741e+00  1.6381974327292494e+00  1.0937507107467999e+00  3.3974892257909550e+00  8.4469514754976380e+00  1.9309770374511734e+00  7.0513261756908427e+00  0.0000000000000000e+00  2.2835349774429443e+00  9.6629720270023292e+00  6.1573843831232788e-01  6.8043135837970468e+00  5.2652195695035422e+00  3.1633808759271331e+00  6.0624021691792755e+00  5.2841640611393466e+00  4.7004010353925505e+00  4.9984124059752393e+00  7.2592789204798063e+00  9.6726906631375353e+00  9.8713063994713213e-01  9.0221214240081746e+00  5.3490745626008689e+00  9.6805092762565774e+00  5.7530916511917978e+00  6.7350807715268637e+00  5.0238197527856858e+00  2.1516559779099174e+00  4.5463825229687558e+00  1.0000000000000000e+01  5.3850442271914165e+00  1.1116929121641967e+00  6.5031489648285001e+00  1.3926371159836870e+00  4.3693168067338197e+00  9.0135967381492232e+00  7.5018693754036008e+00  1.2388564161368774e+00  1.1355021485491579e+00  3.3214649130773388e+00  9.3101978320056700e-01  2.1380127813726117e+00  2.5144142526182591e+00  2.3124071994553708e+00  2.7609620464835074e+00  2.6540091283387293e+00  9.6726192642056361e+00  1.0000000000000000e+01  1.3764080038829301e+00  5.3970000710628465e+00  8.1320377531668395e+00  7.4030451703283333e+00  7.1108400544119146e+00  7.7005347986650365e+00  9.2448120166218519e+00  4.0625020202785134e+00  8.7834811954346836e+00  3.8025124197061135e+00  4.0518610715848498e+00  6.2589756900502920e+00  9.1318956913652602e+00  5.6920742297100135e+00  3.1756438808251222e+00  8.3061309998510300e+00  4.3539787272914756e+00  5.8481458049942869e+00  8.3440908590932441e+00  8.2091527946122529e+00  5.3125021012119458e+00  0.0000000000000000e+00  9.1497583693520852e+00  0.0000000000000000e+00  8.1097290859271460e+00  4.6885285119513842e+00  2.8189721936637087e+00  2.8411099129787774e+00  2.8839006107089746e+00  6.7708742213762658e+00  4.3070332532692648e+00  7.8125013388955304e+00  1.3049102714242318e+00  3.9485867139057498e+00  8.5607107347676674e+00  7.5835077825127719e+00  1.3541675377795992e+00  4.3199484508183748e+00  4.3706094562602491e+00  5.2613297992377710e+00  8.9019222887115674e+00  7.8832228137163636e+00  6.8770864992618224e+00  6.3449909379030718e+00  8.5005473879275915e+00  9.3616471027222481e+00  9.6871935135183200e+00  7.4960798108759947e+00  7.5024990605222919e-01  5.0002685701903644e+00  3.4327991789128648e-01  5.6226662701196624e+00  9.6872252328808646e+00  1.0000000000000000e+01  1.0000000000000000e+01  9.0625006124381393e+00  3.4375018611229686e+00  8.4375009952189313e+00  0.0000000000000000e+00  3.1250020682175017e-01  5.3125021007456743e+00  0.0000000000000000e+00  1.0000000000000000e+01  2.8125016317324891e+00  9.0625006126218484e+00  1.0000000000000000e+01  7.1875016318670095e+00  6.5625018618024615e+00  1.0000000000000000e+01  1.0000000000000000e+01  1.0000000000000000e+01  0.0000000000000000e+00  0.0000000000000000e+00  0.0000000000000000e+00  4.6875021002219563e+00  0.0000000000000000e+00  3.4375018619301372e+00  7.8125013388600353e+00  0.0000000000000000e+00  9.3750061264513784e-01  9.3750061281927055e-01  0.0000000000000000e+00  2.1875013387710305e+00  5.9375020201471473e+00  0.0000000000000000e+00  7.1875016312240270e+00  1.0000000000000000e+01  1.0000000000000000e+01  9.6875002068290570e+00  0.0000000000000000e+00  5.9375020202687940e+00  0.0000000000000000e+00  4.6875020995370162e+00  1.0000000000000000e+01  1.0000000000000000e+01  2.3393546444547111e+00  7.5880619868909722e+00  2.7150348405095731e-01  6.1946732794183985e+00  5.8358928971065334e+00  8.0118485452944732e+00  3.9027945637897341e+00  2.1993969270023022e+00  2.4395023970915259e+00  1.9685684662614624e+00  9.0094644476933663e+00  1.7187510847980501e+00  2.9464714467003578e-01  1.4650640707739659e+00  8.5925645809328408e+00  6.3401506429914312e-01  7.8983060794625259e-01  3.0734119137035387e-01  6.3845533264032217e-01  4.6875030960566111e-01  7.0307835518453476e-01  6.5381813307410364e-01  9.0403121081768116e+00  8.6983342684354401e+00  2.3297838317195723e+00  5.6558406056419210e+00  9.6549054007314314e+00  9.2135966683918702e-01  6.4284787095460070e+00  4.2320329096749063e+00  1.3895147501483296e+00  3.9335689096921276e+00  2.9024288542236114e+00  3.5970579806653977e+00  7.6691800079526748e+00  9.1959546441233417e+00  2.1353905815625103e+00  8.8561054836921489e+00  8.5756336566200186e+00  6.7625538228703865e+00  3.4620021337108970e+00  4.8111671396059608e+00  7.0110172115339395e+00  2.6394150309572204e+00  5.4062430260904257e+00  9.0107560051841666e+00  2.8813882787670315e+00  6.2789615660199720e+00  8.2665963157680142e+00  7.7507576247370364e+00  8.2092851714402038e+00  3.0114760322943618e-01  2.6149733316131867e+00  2.3161367249362743e+00  2.0314400407755300e+00  1.3289798185158292e+00  1.6808497877882500e+00  4.1288323278409464e+00  5.2346052160310146e+00  4.8741798444799960e+00  7.7870600203175862e+00  9.3782176600824787e+00  9.1554438821629116e+00  7.4632074635878212e+00  7.2906728518377610e+00  3.9762197724446833e+00  5.2642866771784531e+00  1.2164692771837977e+00  1.4035495686581960e+00  1.8587237740964377e+00  1.6686503224629126e+00  2.0061054089070933e+00  1.9043855371397103e+00  1.7387622375734426e+00  6.3936413646872765e+00  6.3155720060164660e+00  3.8697555010553790e+00  5.9076405265081258e+00  8.9760611405148847e+00  3.3746718686858097e+00  2.9304762092963381e+00  9.7218097653639699e+00  8.5882987195377769e+00  8.7685435580525617e+00  5.4447241871709684e+00  9.1449614328743212e-01  6.4624784029224589e+00  4.8484222095504350e+00  3.3267104936008791e+00  6.9908132390999622e+00  7.8374797081578604e+00  1.7683466459918078e+00  8.4211801111774562e+00  8.1752560386536715e+00  7.7779682913374071e+00  9.6755133852998103e+00  8.7576526406443520e+00  8.8677505459012718e+00  9.1676566590419366e+00  8.4758082763082925e+00  3.1088990250423656e+00  1.1425288500155233e+00  1.6654635134518032e+00  9.6858222993195060e+00  3.2035186534212383e+00  1.6784814781764021e+00  6.4961179977403471e+00  7.0406518690390074e+00  4.4669818153361334e+00  3.6460318427320950e+00  4.7684790331481270e+00  2.2457581849186612e+00  2.3776892949121846e+00  2.1689162919599405e+00  2.4929866422381622e-01  3.0439036505179611e+00  8.2005280680499535e+00  7.8337554141325505e+00  1.4366338637625216e+00  9.2303912309789062e+00  7.8835246201488509e+00  8.4915614187581170e+00  7.3575022912605457e+00  6.2625659472948740e+00  1.7162657775452959e+00  1.4697765927893973e+00  1.1649109949466778e+00  1.2518186026688811e+00  5.9383416340459396e+00  7.7287272136372