<?xml version="1.0"?>
<VTKFile type="UnstructuredGrid"  version="0.1"  >
<UnstructuredGrid>
<Piece  NumberOfPoints="2513" NumberOfCells="4852">
<Points>
<DataArray  type="Float64"  NumberOfComponents="3"  format="ascii">-1 1 0  -1 -1 0  1 -1 0  1 1 0  0 -1 0  1 0 0  0 1 0  -1 0 0  0 0 0  -1 -0.5 0  -0.5 -1 0  -0.5 1 0  -1 0.5 0  1 -0.5 0  0.5 -1 0  1 0.5 0  0.5 1 0  0.4166666666666666 -0.4166666666666667 0  -0.4166666666666667 0.4166666666666667 0  -0.25 -0.5 0  0.5 0.25 0  -0.4861111111111112 -0.06944444444444445 0  0.0732758620689655 0.507183908045977 0  -0.625 -0.625 0  0.625 0.625 0  0.7380952380952381 -0.25 0  -0.7099116161616161 0.2105429292929293 0  -0.25 0.7380952380952381 0  0.105392156862745 -0.6348039215686275 0  0.6770833333333334 -0.6770833333333333 0  -0.6770833333333334 0.6770833333333334 0  0.3472222222222222 -0.06944444444444446 0  -0.7264957264957265 -0.3044871794871795 0  0.3141940982507127 0.7297313660835709 0  0.02049587951122483 -0.3227479397556124 0  -0.2690972222222223 0.1475694444444444 0  0.3859500089908372 -0.7274430156831472 0  -0.2228477945123298 -0.1761765495248019 0  0.2182539682539683 0.1884920634920635 0  0.75 0.375 0  -0.145442219440968 -0.7602211097204841 0  0.7088913690476191 0.0427827380952381 0  -0.75 -1 0  -1 -0.75 0  1 0.75 0  0.75 1 0  -0.7439982703698937 -0.04614153195464455 0  -0.4609235096577606 -0.3356498099556895 0  0.4063134471431929 0.4895621842856023 0  0.25 -1 0  -0.25 -1 0  -0.75 1 0  0.75 -1 0  -1 -0.25 0  -1 0.25 0  1 -0.25 0  -0.25 1 0  1 -0.75 0  -1 0.75 0  0.25 1 0  1 0.25 0  -0.4041423272138783 -0.7597141090712928 0  0.06500839607911253 0.7578103030529481 0  -0.1572801182352047 0.3838997021864289 0  -0.6528005242053915 0.4409494757946086 0  -0.4930160984848485 0.1544744318181818 0  -0.4732142857142858 0.7752976190476191 0  0.6398809523809523 -0.4538690476190476 0  0.5166054117396399 -0.2161233620965164 0  -0.002273787244753427 0.2232363985975174 0  0.1500564496765022 -0.1524955293952667 0  0.2016720420046758 -0.4410343282803009 0  -0.08495178036419618 0.6274139771124571 0  -0.8367311471133162 0.3642591720794645 0  -0.8333333333333334 -0.625 0  -0.594323836800685 -0.8231079456002283 0  -0.4466957714776065 -0.5349126855671806 0  0.8125 0.5625 0  0.78125 0.78125 0  0.5091392650016769 0.7947130883338923 0  0.125 -0.8382681931833136 0  -0.8184523809523809 -0.8184523809523809 0  -0.07781530426104531 -0.5819319697006881 0  0.5085055196703295 0.04967610411902112 0  0.2918471072074933 -0.276017202318847 0  0.5120763537765269 -0.5898771553229597 0  0.625 -0.8585349462365591 0  0.8158532234335381 -0.8158532234335381 0  -0.5198088446315396 0.5739411553684605 0  -0.8585349462365591 0.625 0  -0.8150493805516597 0.8156205699829586 0  0.8585349462365591 -0.625 0  -0.2688268348649726 0.5439331383603209 0  0.8242100426758139 -0.4436043596336612 0  0.5833756314287952 0.4479378157143976 0  0.8690476190476191 -0.125 0  -0.125 0.8690476190476191 0  -0.8692745600729823 0.125 0  0.8696725120759167 0.125 0  -0.625 0.8711516477451908 0  0.2339522463269718 0.3879558377955778 0  0.2453709502295031 0.5655822922838026 0  0.1730610651637797 0.02021709580868947 0  0.3245402594056757 -0.5644672020485209 0  -0.7291666666666666 -0.4816595441595442 0  -1 -0.375 0  -0.5811140848639904 -0.2127276307675001 0  0.673332592838314 0.2158348143233718 0  0.375 1 0  -0.5714768890989919 0.2985103444040069 0  -1 -0.125 0  -0.8453692574786325 -0.1875 0  -0.3144549134065865 -0.02408675326008025 0  -0.2898414972096258 -0.3336092734780093 0  -0.1075052092206287 -0.4224330421314983 0  -0.05043970703604117 -0.1652278959397459 0  0.6459672950297897 -0.1113415301525317 0  0.4645210271029513 0.6398480556579343 0  0.3512863754411909 0.0937979496253573 0  -0.6063160985568274 0.03891469652249891 0  -0.3428819444444445 0.8690476190476191 0  0.625 1 0  -0.1602164796159982 0.02697860906625157 0  0.04648110064133829 -0.4808416424239687 0  1 0.875 0  -0.3836102479201657 0.6484936449177356 0  -0.3776011723096096 0.263078478984336 0  -0.6024978259969829 -0.3949628096211138 0  0.125 1 0  0.2010781308272777 0.8456221018461906 0  0.2822509696388829 -0.845902544691141 0  -0.3285533674953515 -0.6289773550938936 0  0.3461306793221754 0.278777492464833 0  0.4737475672408696 -0.8508448959534423 0  0.2384632828836344 -0.7029523187242811 0  -0.004777287059791593 0.3759269695907358 0  -0.8499735021850066 -0.3912320205328522 0  0.1222536293721587 0.2963971539625205 0  -0.3769456520999688 -0.203572526805711 0  -0.2749617205755651 -0.8464290792698902 0  0.004805888512766143 -0.747174355248311 0  -0.125 -1 0  -0.06001061822252458 -0.8724007765244854 0  0.875 0.4375 0  0.854421179608893 0.271342359217786 0  0.875 1 0  -0.1499861095763589 0.2358309656934888 0  0.3381943639137225 0.8663061796405532 0  -0.7853090110442228 0.4998412775277108 0  0.7398165998560814 -0.5535192694951373 0  0.1580042122341573 -0.3100246140259917 0  -0.7291666666666667 -0.7142857142857142 0  -0.375 -1 0  0.6483368386154684 0.8514905990110488 0  -0.1295370103291928 -0.2826118305021242 0  0.07458201853700455 0.1123894386563915 0  0.6146465857036327 -0.3161203659316075 0  0.5551898493894731 -0.740296118159085 0  0.375 -1 0  0.482702798370208 -0.084133350091034 0  0.87890625 0.68359375 0  -0.05917195534525846 0.4971092425697621 0  0.1260710309213975 0.6343750312956699 0  0.8690476190476191 -0.3077066815262848 0  -0.2912010232560567 0.3668168386732139 0  -0.875 1 0  -1 0.875 0  1 -0.875 0  0.875 -1 0  -0.8689564281364567 -0.006189266075306407 0  -0.7449425635110547 0.08458938160051771 0  -0.7150266761936593 -0.1739444581417552 0  -0.5260034831318311 -0.711099823962112 0  -0.4724626808827322 -0.871722230709409 0  0.4734436795977052 0.377714794132168 0  -0.875 -1 0  -1 -0.875 0  0.6927189078571988 0.5156567235715964 0  -0.3742497615796874 -0.4296005251260107 0  -0.1969436423297711 -0.6387157229772615 0  -0.6179496409766825 -0.08933356056510935 0  -0.424405057115988 0.04452428810878029 0  -0.08479048335844169 0.1279607007132633 0  0.003830300099055113 0.8712085230656206 0  0.8748778838820267 -1.379218479898026e-05 0  -0.375 1 0  -0.625 1 0  1 0.125 0  -0.125 1 0  1 -0.375 0  1 -0.125 0  1 -0.625 0  0.625 -1 0  0.125 -1 0  -0.625 -1 0  -1 -0.625 0  -1 0.125 0  -1 0.375 0  -1 0.625 0  1 0.375 0  1 0.625 0  0.6325660748712082 0.3335187599557389 0  -0.06420945895056573 0.7549874027425891 0  -0.8769015540914771 0.2478802253893416 0  0.871875 0.871875 0  -0.6868091492840067 0.3270978624973681 0  -0.5363597469565949 0.412994850055505 0  -0.6803734992638302 0.5574295000651103 0  -0.7076253581162534 -0.8803439094224437 0  -0.8778089002295137 -0.5106896447504627 0  -0.3860184984222981 0.530566778071246 0  0.6109900617121508 0.1128453077697081 0  0.3896945134930274 -0.1915382873255086 0  0.7605656944697778 -0.06822134873122943 0  0.3576151269893478 0.5948388411612135 0  -0.5689902680792265 -0.5143596830118065 0  0.6262446286847614 -0.5735657901943212 0  0.2030558252325225 -0.5625263842513452 0  0.6123273142928579 0.7407533260723429 0  0.4016460890123554 -0.3042863223111857 0  -0.59039693199147 0.7578418819188018 0  0.7276932493917544 -0.3705808024528924 0  0.5222536818742854 -0.4713886230400014 0  -0.5101986527137737 0.8848365765607674 0  0.510560172809238 0.5356013299918891 0  -0.3603569195756083 0.75823710606415 0  0.1967279277813232 0.728226870058472 0  -0.6086880986371127 0.1545624071548516 0  -0.38105366729386 0.1511189987807864 0  -0.2944659463671584 -0.7359061804869591 0  0.5060729154966499 -0.3475227845833823 0  -0.09281616240412746 -0.06197858250969457 0  0.7649739583333334 0.6673177083333334 0  0.7628906249999999 0.890234375 0  -0.2666864184909611 0.2585504071132311 0  0.3635064892129658 0.3878003602709461 0  -0.2339409722222222 0.8901937905844155 0  -0.1718792125974916 -0.8957733325456778 0  0.1001768566329531 0.4023510017391879 0  0.3120260172693757 -0.4540546875576884 0  0.7804062804433681 0.1896628610854537 0  0.4087715451998049 0.187961780041608 0  -0.1584963477271457 0.5451611892421655 0  -0.8926817849258324 0.463022006336401 0  0.2338091473445219 -0.07576267331277289 0  0.08171112182813692 -0.2349087687359925 0  0.04635385178956847 -0.1044635073718474 0  -0.4377391632114205 -0.6448874471423088 0  -0.1907678351227189 0.6480215912813945 0  0.300605946475244 0.4741444604171038 0  -0.2145033720757486 -0.06751709909419711 0  0.6069191921170397 -0.005492331448357812 0  0.0214718770761248 0.6032397936031719 0  0.5476675683364878 0.8992752415326501 0  0.4387475014316537 0.9093708953002239 0  -0.4932997685306436 -0.4381009159993523 0  0.2515197695339056 -0.1791673369138964 0  -0.7291666666666667 -0.6088789682539681 0  -0.9166666666666667 -0.6875 0  0.620579540363709 -0.2122431523583302 0  -0.484950136419973 0.6719440339397442 0  0.2857044415400258 0.0137589173127316 0  -0.8945708364098356 -0.288306105327986 0  0.4043102720140535 0.7842914560451557 0  0.04123256238752064 -0.9026968245801402 0  0.2003676884403109 -0.9091888601740487 0  0.1068775558538842 -0.7373377130403223 0  -0.4804566783514427 -0.1763307203045643 0  0.108286342087769 -0.3993789328997278 0  -0.191883080105361 -0.3640821726430649 0  -0.07025064492006244 0.2984876656890053 0  -0.7039324641409584 0.788312126296613 0  -0.7311286585775438 0.8932502354831682 0  0.5171409396884947 0.1503852691889257 0  0.4229392823658633 -0.003216522184234835 0  -0.5621736087218259 -0.919558629836806 0  -0.626474064879544 -0.7266572613636506 0  0.2446828746617422 0.2867616783302419 0  0.1759429608742923 0.4776611759306416 0  -0.3468240303741654 -0.5260416435617549 0  -0.7465808808425306 0.4069574477998361 0  -0.7819962170660292 0.2802441065650652 0  -0.3742623214119594 -0.8547800509641984 0  0.1014498009713561 0.8506721983266377 0  0.4285217620918213 -0.5230190595570253 0  0.4091738370487775 -0.6256346204225141 0  0.78125 0.46875 0  0.90625 0.53125 0  -0.4791801348852565 0.2553992655702126 0  0.7843318610782772 -0.7086046956885941 0  0.8909728264971901 -0.7355183796514634 0  0.7041908166528879 -0.7830649143180282 0  0.7311821352
[...]
<PointData  Scalars="velocity-2"> 
<DataArray  type="Float64"  Name="velocity-2"  format="ascii">0.0000000000000000e+00  0.0000000000000000e+00  1.0000000000000000e+01  1.0000000000000000e+01  7.7825026782224640e+00  1.0000000000000000e+01  7.7836757495869824e+00  0.0000000000000000e+00  7.7827702500098184e+00  0.0000000000000000e+00  5.2655721873107462e+00  5.2652913761336038e+00  0.0000000000000000e+00  1.0000000000000000e+01  8.9553973587914797e+00  1.0000000000000000e+01  8.9555267028844430e+00  8.7794124979187629e+00  5.8722084944303310e+00  6.8354974630156873e+00  8.9554367129287318e+00  5.3708219263305672e+00  7.9879695735037659e+00  4.1792227797605834e+00  9.2171206549145150e+00  9.4533080464938308e+00  3.3337589972122612e+00  6.8357700479955996e+00  8.0714863617844745e+00  9.3260620325014223e+00  3.6698605608103687e+00  8.6306359855396728e+00  3.1603235598988761e+00  8.5590286538386522e+00  7.8422466729086677e+00  6.7417943600500188e+00  8.7138896786983633e+00  6.9632423767533407e+00  8.3442297729944706e+00  9.4781278549235832e+00  7.2891864881700092e+00  9.3924503855639401e+00  2.9086852743327372e+00  0.0000000000000000e+00  1.0000000000000000e+01  9.4782281523343439e+00  2.9730039949417320e+00  5.5605555092470702e+00  8.7576090665242052e+00  8.4166726909896852e+00  6.8370026298123978e+00  2.9065705171628533e+00  9.4781905919188585e+00  0.0000000000000000e+00  0.0000000000000000e+00  1.0000000000000000e+01  6.8347054110136289e+00  1.0000000000000000e+01  0.0000000000000000e+00  8.4165000405182706e+00  1.0000000000000000e+01  5.9568160798123513e+00  7.9658641727874349e+00  7.2439444541031062e+00  3.9119937156557718e+00  5.3189595710023996e+00  5.4689298242932853e+00  9.2483237698537675e+00  8.9901844315506523e+00  7.7756055959955281e+00  8.1833745621079093e+00  8.3061746896309927e+00  7.5116012830583401e+00  1.9378939712598671e+00  1.9775706377894673e+00  4.4631265939138505e+00  5.6635738254418762e+00  9.6086520629533130e+00  9.5434474394637512e+00  8.9746177417344217e+00  8.1207402315178019e+00  2.1474001510936009e+00  7.5351316872149807e+00  8.9731545919496529e+00  8.5097721464449538e+00  8.9806927066818769e+00  9.2173254028764511e+00  9.6156724318274982e+00  5.1052146643388800e+00  1.6854722151321213e+00  2.1858691364398566e+00  9.7047336659143077e+00  6.7426791986076378e+00  9.6331468203696655e+00  9.1301605887378994e+00  9.7267220051277690e+00  7.3683442480440178e+00  1.5603831471973189e+00  9.7279283633239508e+00  4.1793345724278588e+00  8.3803079678186574e+00  8.4064017208725481e+00  8.2388342942731096e+00  8.5813214603755021e+00  3.1310345283286600e+00  0.0000000000000000e+00  4.5823002634000387e+00  9.3181611474001773e+00  8.6907835138362550e+00  4.6681362721248041e+00  0.0000000000000000e+00  1.8381290338381646e+00  6.5015517121369388e+00  6.6345409530832908e+00  7.4317302674229815e+00  7.6262114564071544e+00  9.2611477090232857e+00  8.8805029594462788e+00  8.6396015317422474e+00  4.3552631262483441e+00  6.3391089744868090e+00  9.2172476540168464e+00  7.2312529579365865e+00  7.9155478446782199e+00  1.0000000000000000e+01  6.0903995721521964e+00  6.1274699341757417e+00  4.3888591944884912e+00  8.1214438787189032e+00  8.3042699044790638e+00  8.4887765906505539e+00  6.4220268710268842e+00  8.6280020885004713e+00  8.9002310505280349e+00  8.3904159829778706e+00  7.7682580098693723e+00  1.7849069715343884e+00  8.1141558379287471e+00  6.1327846151641117e+00  6.7111226234448083e+00  7.7968988428430874e+00  7.3681316545980824e+00  7.5956706720323597e+00  9.7390347383007043e+00  9.6961830568265270e+00  9.7391822647060824e+00  7.2723379444283793e+00  8.6110712363859125e+00  2.5205050842607468e+00  9.4569705003751316e+00  8.2022610028181475e+00  3.1315442542126122e+00  6.1457579168139898e+00  9.2660313257800500e+00  7.3507401176276641e+00  7.9909251533096590e+00  9.1954742226895725e+00  9.0711133424780055e+00  8.6904524255387035e+00  8.9189212800905135e+00  9.7472036376682922e+00  7.5975044931533002e+00  8.1239396387200724e+00  9.7266267387045460e+00  6.6268913501650317e+00  1.4938601656507455e+00  0.0000000000000000e+00  1.0000000000000000e+01  9.7391878132328138e+00  1.5636369941055395e+00  2.9617687980346252e+00  3.2802985283979393e+00  5.0547580504695651e+00  5.4736429191071085e+00  8.8995365222310028e+00  1.4938177612007342e+00  0.0000000000000000e+00  9.3586707369067490e+00  6.1488260817947573e+00  7.0783473932240009e+00  4.2448230540602516e+00  5.8199006070657546e+00  7.5118527833525182e+00  7.7933459470709643e+00  9.7387720801664059e+00  6.1477404228111618e+00  4.1792551900244179e+00  1.0000000000000000e+01  7.3678173629948782e+00  1.0000000000000000e+01  1.0000000000000000e+01  1.0000000000000000e+01  9.2173487813681962e+00  8.1212799098518271e+00  4.1802017328187580e+00  0.0000000000000000e+00  0.0000000000000000e+00  0.0000000000000000e+00  0.0000000000000000e+00  1.0000000000000000e+01  1.0000000000000000e+01  9.2329708033310300e+00  7.5813759497389661e+00  1.4706314058533072e+00  9.7325617681493028e+00  3.5733499924091974e+00  4.9698347630398860e+00  3.6378698581400237e+00  3.3574678031214629e+00  1.4603602777533391e+00  6.0754936114105940e+00  9.1879608169707598e+00  8.7214017898579304e+00  9.5002585568986309e+00  8.6531813294367801e+00  4.6896522247599135e+00  9.2198734482473448e+00  8.3091936719353718e+00  9.1908295414808752e+00  8.7473191189737811e+00  4.4996937899598430e+00  9.4316145649703280e+00  9.0023198872409669e+00  5.1825383797777711e+00  8.9776613825732046e+00  6.2357464290970848e+00  8.2943729114588933e+00  4.3327353189252831e+00  6.1066916188636311e+00  6.6102777917524014e+00  8.9681028434598726e+00  7.4837744806443842e+00  9.5095015103193319e+00  9.5051838408647082e+00  6.7539080145302544e+00  8.6656129491349247e+00  6.9112748290469588e+00  7.1835169409520816e+00  8.0582238413116816e+00  8.5547120276650226e+00  9.5417573627327688e+00  8.7628379304990354e+00  7.2382410592613713e+00  1.2852505859578731e+00  8.3798843616444056e+00  8.0098347274583546e+00  7.9149394719428452e+00  5.7282000058522762e+00  7.1048154631741038e+00  8.5292445564796431e+00  7.0018614042964709e+00  9.1795104688581031e+00  7.8454868336996206e+00  9.0555130745229526e+00  8.8263590181143545e+00  5.3141263029235608e+00  8.4201281370797059e+00  3.1316143190143051e+00  1.0005098065971822e+00  9.2078899012063982e+00  5.3798479095832921e+00  8.4962698192203536e+00  1.2628318170334270e+00  8.7530871231978313e+00  7.9010011504027187e+00  8.3030423402663622e+00  8.0751508520095907e+00  5.4144148076306902e+00  8.0790542780788677e+00  7.1002732594321065e+00  7.5609285472371415e+00  3.3958031775759419e+00  3.1114223085715449e+00  8.9914911599806064e+00  8.7926049908729169e+00  4.7487879785095748e+00  4.1656659089047823e+00  8.4046508614640683e+00  8.2452924344379177e+00  6.3172371477087301e+00  2.9447394649974163e+00  2.5581174779460949e+00  6.1499994449982642e+00  8.0615007830283538e+00  8.8044088322967742e+00  8.7634498062947710e+00  9.5433724015525723e+00  9.8042728180586618e+00  5.4245509630596418e+00  9.5498890130853447e+00  9.7725648717166518e+00  9.3827622651910421e+00  9.4390585419302830e+00  9.8377085186683622e-01  1.1172887652291383e+00  2.5316226333126903e+00  6.9141408259765846e+00  2.3590283633572189e+00  1.2258178974787113e+00  1.0890542341968912e+00  2.0623263210368137e+00  2.0419485963611428e+00  9.7761764255351142e+00  6.6486280848689248e+00  4.5787305816865445e+00  8.6979699420759893e+00  7.5401908782418241e+00  7.8481608833432652e+00  7.2032994282799532e+00  2.7057820350139195e+00  8.5572384209336949e+00  8.1111766259719751e+00  6.0736376711015154e+00  6.4195127557367782e+00  9.4306442368413246e-01  9.0866496010974167e+00  9.7815298509867681e+00  9.8052516080302645e+00  9.7398778828053967e+00  5.0272521670034456e+00  5.4766488708775096e+00  4.4582095144278924e+00  8.3954552192033454e+00  9.4689160472919234e+00  6.4290107620933590e+00  8.5741067495526586e+00  8.3796640456746019e+00  7.2333880314558678e+00  8.8998494797621550e+00  7.1554044255280047e+00  4.1530759692288362e+00  9.4456974489597698e+00  6.5126024774151583e+00  9.5410689381917759e+00  2.0400124693696329e+00  9.8056754333342333e+00  8.0577601958183120e-01  5.1469171129714768e+00  9.3092626650517420e+00  9.1681448440493352e+00  9.1417856935435484e+00  7.5872575088280465e+00  2.4933835339470511e+00  7.8615724042414703e-01  9.5861522011284439e+00  9.8638713430502420e+00  6.5386758131702232e+00  8.5554051908926034e+00  9.0145024450949300e+00  8.8234855351495778e+00  9.8639410081744447e+00  9.6085941761728382e+00  8.4935345048831365e+00  8.1312160805567260e+00  5.7288388461090634e+00  2.8346039518786239e+00  2.4426488393309027e+00  3.7832541240678377e+00  9.8638136025648606e+00  7.5344400286911817e-01  7.5391190278132281e-01  9.8638180183716226e+00  9.8633193882363628e+00  7.9594255112607337e+00  9.6680596724942947e-01  9.8632165902272391e+00  9.3943355374080362e+00  9.1290546144370399e+00  8.0920144269996008e+00  8.2711493491167030e+00  9.3478060158529956e+00  8.7128309375971558e+00  8.6168911672258712e+00  7.7872048087075711e+00  8.0184687295032671e+00  7.8593685721066631e-01  3.5746451538143660e+00  9.3804565865156917e+00  6.8454784762361216e+00  7.2690288410906181e+00  5.4611177180335329e+00  7.7664090122653295e+00  8.2728159327409418e+00  5.2081241543698606e+00  6.6481879001257269e+00  6.1433198358812442e+00  6.9677413766313849e+00  9.1195995852018452e+00  8.8313364429200316e+00  9.6285816582222523e+00  7.8000344879073937e+00  5.1605988975493826e+00  2.2678004388765323e+00  6.6006436685084777e+00  9.4424623882207861e+00  9.6589825451969418e+00  1.0002021681950568e+00  8.8912590632198374e-01  9.0939819494372998e+00  9.3665312867848947e+00  6.9852851138402228e+00  9.3402603094186656e+00  7.3638815570270832e+00  8.4456503371007479e+00  9.0492771468937736e+00  5.7738513373938902e+00  4.8432989747303612e+00  7.6388350493338129e+00  7.7506542133799972e+00  7.5793259623642442e+00  8.1630598075171612e+00  4.8254145867784066e+00  4.0077581588118996e+00  4.3397754865303577e+00  4.0659184608000576e+00  4.8973484315280578e+00  4.7484731715452044e+00  7.5443133687820003e+00  7.7738709614641852e+00  7.1227259567394006e+00  8.9592507804880448e+00  8.4272204766897367e+00  3.7935818947090088e+00  4.8461717877873687e+00  9.4732889039207855e+00  7.3255771275124140e+00  8.7719120093356242e+00  9.0453875178616610e+00  8.8190548371108743e+00  5.7302323458796813e+00  8.3352133639438897e+00  6.5836587061099454e+00  6.6070345233695962e+00  8.1986401904744870e+00  7.8067902916354779e+00  8.1093356132314884e+00  8.3152185753141303e+00  7.5291920008233069e+00  6.1634149198749233e+00  5.9438282962258677e+00  9.6252086362673399e+00  9.8685961846891761e+00  8.5649151990946297e+00  1.0561929299524642e+00  7.2734651413844276e+00  8.8574090434439245e+00  6.4518398143940905e+00  9.6385007733804056e+00  5.7952239940035986e+00  8.5282085992742438e+00  6.9522086852186398e+00  5.6594637259356304e+00  9.8522875837644666e+00  1.2352601094220284e+00  8.1784516425244664e+00  9.2167832806056822e+00  9.7468651499862862e+00  7.5196889096444708e-01  9.5567136277839069e+00  7.1182506371648033e+00  6.3957549478088893e+00  3.6432961677265925e+00  9.4598395647177691e-01  8.4489656922161842e+00  2.4452647982964244e+00  3.7964620657660086e+00  3.8601191914168664e+00  7.8823090167201109e+00  7.8869279332647988e+00  9.3478343360074039e+00  9.2953986084553009e+00  8.4164511550310337e+00  1.0000000000000000e+01  5.8202496411124542e+00  2.2474707089952464e+00  9.0591101593214791e+00  6.6665612848842111e+00  6.1409188181232386e+00  7.5625342000836788e+00  4.1124752351463281e+00  3.5637335867275448e+00  9.1150178719614274e+00  9.4166361563973950e+00  4.9481605105361597e+00  4.7897619248353376e+00  8.5552558023561875e+00  6.0458259500525262e+00  8.2159931208740957e+00  5.8503222858246851e+00  7.2945825132863327e+00  7.0348448569732618e+00  7.5393255038116944e+00  1.0000000000000000e+01  9.7121004861461362e+00  9.0219533363126416e+00  8.8750763226202718e+00  1.7382929808480481e+00  9.3542049630506021e+00  9.1396709866779577e+00  8.5124630200614160e+00  7.7007615693342029e+00  3.5657877290711415e+00  9.8617618254537707e+00  7.1919947233455286e+00  6.8710012654188031e+00  3.2523206321160738e+00  2.1949813064984185e+00  8.8409061613420743e+00  9.2022060266324477e+00  7.0636609096808094e+00  7.8836447091879478e+00  8.2149054137990554e+00  8.2434828154109621e+00  8.1045619546287764e+00  4.1235161179548339e+00  9.1307104264804213e+00  0.0000000000000000e+00  3.8771173806440298e+00  4.5573899848754857e+00  7.4351139051338944e+00  5.8186695405335236e+00  6.4199843227665596e+00  9.6623513984121576e+00  8.7669969217730443e+00  8.8706120547185900e+00  7.5209382180292090e+00  8.4990050956253682e-01  9.3376370003440581e+00  7.3628427190239485e+00  7.7127513435554169e+00  7.7297862054708153e+00  1.0000000000000000e+01  9.2722953941392507e+00  9.1028241745427163e+00  9.3066018672577826e+00  6.2706378719330838e+00  9.8694723006232721e+00  9.6738564593625309e+00  9.8480141888354158e+00  0.0000000000000000e+00  9.8695352458863592e+00  7.3906721767960395e+00  2.8046070900898687e+00  3.5601666635579505e+00  8.5684787953415142e+00  8.5776483948920621e+00  8.6814590703987840e+00  8.6446017317227195e+00  9.8553934381068302e+00  9.6156557824197577e+00  8.2430058729743774e+00  8.0339985886305278e+00  1.8523761054104706e+00  6.9538951332015575e+00  7.9905098955748004e+00  6.7608381173341909e+00  5.4029933356233872e+00  2.6474597182657273e+00  3.7172458021303227e+00  2.5648854359177644e+00  6.4676144968080198e+00  9.3518057352307729e+00  4.2841279340261895e+00  8.7659208351589264e+00  0.0000000000000000e+00  4.9098728685954498e+00  9.8593011946859068e+00  1.4710224033611514e+00  8.6597702299443160e+00  7.9332808786201250e+00  6.1924035823590318e+00  8.3310964340892255e+00  7.9435925433004089e+00  7.5953204991554921e+00  7.7814611045016644e+00  8.8538818509018782e+00  9.8633448712692946e+00  2.3265016774610388e+00  9.5918174692969860e+00  7.9782876298345835e+00  9.8665031205980736e+00  8.1842551614255079e+00  8.6305373879101044e+00  7.7963524872689813e+00  4.6833532602291736e+00  7.4911618378078133e+00  1.0000000000000000e+01  7.9978623302609151e+00  2.6046441008216741e+00  8.5291911521203065e+00  3.2122759955507592e+00  7.3632221841799446e+00  9.5882351846835885e+00  8.9562133524132062e+00  2.8836212931346115e+00  2.6580474183245770e+00  6.3809809248820750e+00  2.1994888614759085e+00  4.6593034806698714e+00  5.2845920723975999e+00  4.9586082373369873e+00  5.6560000548892440e+00  5.4981549047374072e+00  9.8632471139133244e+00  1.0000000000000000e+01  3.1774438906172398e+00  8.0046005276267458e+00  9.2201580676996766e+00  8.9146361353286352e+00  8.7909218313709037e+00  9.0396529904657950e+00  9.6848027848027183e+00  7.1209771826467971e+00  9.4921385718390034e+00  6.8858517311778993e+00  7.1092417432595028e+00  8.4205627675016110e+00  9.6376856719339568e+00  8.1543558251941963e+00  6.2062055429482301e+00  9.2929815715776289e+00  7.3514512577876783e+00  8.2305504297025003e+00  9.3087996372303259e+00  9.2523866339367711e+00  7.9605714289359488e+00  0.0000000000000000e+00  9.6450503166929007e+00  0.0000000000000000e+00  9.2109611544306258e+00  7.5874136793137614e+00  5.7372523799575808e+00  5.7694668457852494e+00  5.8276187795942169e+00  8.6457866389213045e+00  7.3155622836994016e+00  9.0865354589864360e+00  3.0263543510524848e+00  7.0193177320967637e+00  9.3992520997614264e+00  8.9907369610566317e+00  3.1322078298583205e+00  7.3254706986110874e+00  7.3648207708106046e+00  7.9315970218310730e+00  9.5415797526336377e+00  9.1161186587200103e+00  8.6915881023842001e+00  8.4591261924577790e+00  9.3741207351209574e+00  9.7334806270892447e+00  9.8694717452923566e+00  8.9538219361297635e+00  1.7854881685893649e+00  7.7836610892539175e+00  8.2509053259225140e-01  8.1202673254795794e+00  9.8695210553389430e+00  1.0000000000000000e+01  1.0000000000000000e+01  9.6087556247025177e+00  6.5131969372913154e+00  9.3477296369737246e+00  0.0000000000000000e+00  7.5182140482494875e-01  7.9600603309423805e+00  0.0000000000000000e+00  1.0000000000000000e+01  5.7312358520935183e+00  9.6087733551332946e+00  1.0000000000000000e+01  8.8238010161220046e+00  8.5556239692721707e+00  1.0000000000000000e+01  1.0000000000000000e+01  1.0000000000000000e+01  0.0000000000000000e+00  0.0000000000000000e+00  0.0000000000000000e+00  7.5874854878736260e+00  0.0000000000000000e+00  6.5148203409050414e+00  9.0866684670822213e+00  0.0000000000000000e+00  2.2151931970771344e+00  2.2160033118657019e+00  0.0000000000000000e+00  4.7472955005997299e+00  8.2733294261285124e+00  0.0000000000000000e+00  8.8235656535729863e+00  1.0000000000000000e+01  1.0000000000000000e+01  9.8695730580905767e+00  0.0000000000000000e+00  8.2734551328343944e+00  0.0000000000000000e+00  7.5866230727132509e+00  1.0000000000000000e+01  1.0000000000000000e+01  5.0047131930732327e+00  8.9925759478021980e+00  6.5330045349132926e-01  8.3915578599880867e+00  8.2246096690369548e+00  9.1698160789755061e+00  6.9792833931741685e+00  4.7664820710456910e+00  5.1662355606113692e+00  4.3550627398240218e+00  9.5865448340915549e+00  3.8782400271688173e+00  7.0858054212735988e-01  3.3648439886378410e+00  9.4125577973177972e+00  1.5142635752787696e+00  1.8774217411854974e+00  7.3953284823817533e-01  1.5243718578724277e+00  1.1244674760398674e+00  1.6753059295973005e+00  1.5602309700605410e+00  9.5994031340413439e+00  9.4565853400321629e+00  4.9879703837563873e+00  8.1363918338689682e+00  9.8559984627417645e+00  2.1779742895314387e+00  8.4963858749686079e+00  7.2576172324548347e+00  3.2056762081575991e+00  7.0062819753914454e+00  5.8525952546506588e+00  6.6829935635775382e+00  9.0264394590787145e+00  9.6643326652078816e+00  4.6548403584220051e+00  9.5224884911924708e+00  9.4054301900798194e+00  8.6423331060959967e+00  6.5390419452473134e+00  7.6680260431893092e+00  8.7488311671776291e+00  5.4773824716711523e+00  8.0090846233025150e+00  9.5871450954687880e+00  5.8255412153182204e+00  8.4296769440638304e+00  9.2764394165531385e+00  9.0607759229952922e+00  9.2525286601644847e+00  7.2429092539504702e-01  5.4406832328348225e+00  4.9665020071738377e+00  4.4702242809074013e+00  3.0782359422653367e+00  3.8022776368631921e+00  7.1750540499814166e+00  7.9164132660977806e+00  7.7071913993491492e+00  9.0758138404900706e+00  9.7404633371976210e+00  9.6474698431011543e+00  8.9399015314958774e+00  8.8671707709877499e+00  7.0460546110243394e+00  7.9332139701337736e+00  2.8363431603140135e+00  3.2365119144065746e+00  4.1483687200407884e+00  3.7780596115649594e+00  4.4238595811587080e+00  4.2340535136611415e+00  3.9189222665636456e+00  8.4813002731061431e+00  8.4462215514722043e+00  6.9496688145888559e+00  8.2586359987336362e+00  9.5724871044234305e+00  6.4438415350764204e+00  5.8928188442026270e+00  9.8839022257668052e+00  9.4106967088948252e+00  9.4860175157117137e+00  8.0296735452476646e+00  2.1622357496776856e+00  8.5113943664935494e+00  7.6904468303858824e+00  6.3882498384546036e+00  8.7401569256402052e+00  9.0969675961069818e+00  3.9746349283723545e+00  9.3408947203783690e+00  9.2382492695397556e+00  9.0721434882495355e+00  9.8644968213307358e+00  9.4815474032773466e+00  9.5273768441935207e+00  9.6527278317075460e+00  9.3637559334194744e+00  6.1237614422171394e+00  2.6735558211537205e+00  3.7727099270618556e+00  9.8689328253265654e+00  6.2410574644195007e+00  3.7983912685663128e+00  8.5259918824770704e+00  8.7612309968944970e+00  7.4351877061532727e+00  6.7328212923597581e+00  7.6403282101052223e+00  4.8475868830875930e+00  5.0670880502554123e+00  4.7153065868260553e+00  5.9994772400578578e-01  6.0413714715318623e+00  9.2487805448376363e+00  9.0954666044306887e+00  3.3050843032324968e+00  9.6788320589717269e+00  9.1162204545968226e+00  9.3702567195880242e+00  8.8955063084236894e+00  8.4222209637580292e+00  3.8740049305240722e+00  3.3744804510499038e+00  2.7222446332703836e+00  2.9117795105495770e+00  8.2732685815246434e+00  9.05141