<?xml version="1.0"?>
<VTKFile type="UnstructuredGrid"  version="0.1"  >
<UnstructuredGrid>
<Piece  NumberOfPoints="2513" NumberOfCells="4852">
<Points>
<DataArray  type="Float64"  NumberOfComponents="3"  format="ascii">-1 1 0  -1 -1 0  1 -1 0  1 1 0  0 -1 0  1 0 0  0 1 0  -1 0 0  0 0 0  -1 -0.5 0  -0.5 -1 0  -0.5 1 0  -1 0.5 0  1 -0.5 0  0.5 -1 0  1 0.5 0  0.5 1 0  0.4166666666666666 -0.4166666666666667 0  -0.4166666666666667 0.4166666666666667 0  -0.25 -0.5 0  0.5 0.25 0  -0.4861111111111112 -0.06944444444444445 0  0.0732758620689655 0.507183908045977 0  -0.625 -0.625 0  0.625 0.625 0  0.7380952380952381 -0.25 0  -0.7099116161616161 0.2105429292929293 0  -0.25 0.7380952380952381 0  0.105392156862745 -0.6348039215686275 0  0.6770833333333334 -0.6770833333333333 0  -0.6770833333333334 0.6770833333333334 0  0.3472222222222222 -0.06944444444444446 0  -0.7264957264957265 -0.3044871794871795 0  0.3141940982507127 0.7297313660835709 0  0.02049587951122483 -0.3227479397556124 0  -0.2690972222222223 0.1475694444444444 0  0.3859500089908372 -0.7274430156831472 0  -0.2228477945123298 -0.1761765495248019 0  0.2182539682539683 0.1884920634920635 0  0.75 0.375 0  -0.145442219440968 -0.7602211097204841 0  0.7088913690476191 0.0427827380952381 0  -0.75 -1 0  -1 -0.75 0  1 0.75 0  0.75 1 0  -0.7439982703698937 -0.04614153195464455 0  -0.4609235096577606 -0.3356498099556895 0  0.4063134471431929 0.4895621842856023 0  0.25 -1 0  -0.25 -1 0  -0.75 1 0  0.75 -1 0  -1 -0.25 0  -1 0.25 0  1 -0.25 0  -0.25 1 0  1 -0.75 0  -1 0.75 0  0.25 1 0  1 0.25 0  -0.4041423272138783 -0.7597141090712928 0  0.06500839607911253 0.7578103030529481 0  -0.1572801182352047 0.3838997021864289 0  -0.6528005242053915 0.4409494757946086 0  -0.4930160984848485 0.1544744318181818 0  -0.4732142857142858 0.7752976190476191 0  0.6398809523809523 -0.4538690476190476 0  0.5166054117396399 -0.2161233620965164 0  -0.002273787244753427 0.2232363985975174 0  0.1500564496765022 -0.1524955293952667 0  0.2016720420046758 -0.4410343282803009 0  -0.08495178036419618 0.6274139771124571 0  -0.8367311471133162 0.3642591720794645 0  -0.8333333333333334 -0.625 0  -0.594323836800685 -0.8231079456002283 0  -0.4466957714776065 -0.5349126855671806 0  0.8125 0.5625 0  0.78125 0.78125 0  0.5091392650016769 0.7947130883338923 0  0.125 -0.8382681931833136 0  -0.8184523809523809 -0.8184523809523809 0  -0.07781530426104531 -0.5819319697006881 0  0.5085055196703295 0.04967610411902112 0  0.2918471072074933 -0.276017202318847 0  0.5120763537765269 -0.5898771553229597 0  0.625 -0.8585349462365591 0  0.8158532234335381 -0.8158532234335381 0  -0.5198088446315396 0.5739411553684605 0  -0.8585349462365591 0.625 0  -0.8150493805516597 0.8156205699829586 0  0.8585349462365591 -0.625 0  -0.2688268348649726 0.5439331383603209 0  0.8242100426758139 -0.4436043596336612 0  0.5833756314287952 0.4479378157143976 0  0.8690476190476191 -0.125 0  -0.125 0.8690476190476191 0  -0.8692745600729823 0.125 0  0.8696725120759167 0.125 0  -0.625 0.8711516477451908 0  0.2339522463269718 0.3879558377955778 0  0.2453709502295031 0.5655822922838026 0  0.1730610651637797 0.02021709580868947 0  0.3245402594056757 -0.5644672020485209 0  -0.7291666666666666 -0.4816595441595442 0  -1 -0.375 0  -0.5811140848639904 -0.2127276307675001 0  0.673332592838314 0.2158348143233718 0  0.375 1 0  -0.5714768890989919 0.2985103444040069 0  -1 -0.125 0  -0.8453692574786325 -0.1875 0  -0.3144549134065865 -0.02408675326008025 0  -0.2898414972096258 -0.3336092734780093 0  -0.1075052092206287 -0.4224330421314983 0  -0.05043970703604117 -0.1652278959397459 0  0.6459672950297897 -0.1113415301525317 0  0.4645210271029513 0.6398480556579343 0  0.3512863754411909 0.0937979496253573 0  -0.6063160985568274 0.03891469652249891 0  -0.3428819444444445 0.8690476190476191 0  0.625 1 0  -0.1602164796159982 0.02697860906625157 0  0.04648110064133829 -0.4808416424239687 0  1 0.875 0  -0.3836102479201657 0.6484936449177356 0  -0.3776011723096096 0.263078478984336 0  -0.6024978259969829 -0.3949628096211138 0  0.125 1 0  0.2010781308272777 0.8456221018461906 0  0.2822509696388829 -0.845902544691141 0  -0.3285533674953515 -0.6289773550938936 0  0.3461306793221754 0.278777492464833 0  0.4737475672408696 -0.8508448959534423 0  0.2384632828836344 -0.7029523187242811 0  -0.004777287059791593 0.3759269695907358 0  -0.8499735021850066 -0.3912320205328522 0  0.1222536293721587 0.2963971539625205 0  -0.3769456520999688 -0.203572526805711 0  -0.2749617205755651 -0.8464290792698902 0  0.004805888512766143 -0.747174355248311 0  -0.125 -1 0  -0.06001061822252458 -0.8724007765244854 0  0.875 0.4375 0  0.854421179608893 0.271342359217786 0  0.875 1 0  -0.1499861095763589 0.2358309656934888 0  0.3381943639137225 0.8663061796405532 0  -0.7853090110442228 0.4998412775277108 0  0.7398165998560814 -0.5535192694951373 0  0.1580042122341573 -0.3100246140259917 0  -0.7291666666666667 -0.7142857142857142 0  -0.375 -1 0  0.6483368386154684 0.8514905990110488 0  -0.1295370103291928 -0.2826118305021242 0  0.07458201853700455 0.1123894386563915 0  0.6146465857036327 -0.3161203659316075 0  0.5551898493894731 -0.740296118159085 0  0.375 -1 0  0.482702798370208 -0.084133350091034 0  0.87890625 0.68359375 0  -0.05917195534525846 0.4971092425697621 0  0.1260710309213975 0.6343750312956699 0  0.8690476190476191 -0.3077066815262848 0  -0.2912010232560567 0.3668168386732139 0  -0.875 1 0  -1 0.875 0  1 -0.875 0  0.875 -1 0  -0.8689564281364567 -0.006189266075306407 0  -0.7449425635110547 0.08458938160051771 0  -0.7150266761936593 -0.1739444581417552 0  -0.5260034831318311 -0.711099823962112 0  -0.4724626808827322 -0.871722230709409 0  0.4734436795977052 0.377714794132168 0  -0.875 -1 0  -1 -0.875 0  0.6927189078571988 0.5156567235715964 0  -0.3742497615796874 -0.4296005251260107 0  -0.1969436423297711 -0.6387157229772615 0  -0.6179496409766825 -0.08933356056510935 0  -0.424405057115988 0.04452428810878029 0  -0.08479048335844169 0.1279607007132633 0  0.003830300099055113 0.8712085230656206 0  0.8748778838820267 -1.379218479898026e-05 0  -0.375 1 0  -0.625 1 0  1 0.125 0  -0.125 1 0  1 -0.375 0  1 -0.125 0  1 -0.625 0  0.625 -1 0  0.125 -1 0  -0.625 -1 0  -1 -0.625 0  -1 0.125 0  -1 0.375 0  -1 0.625 0  1 0.375 0  1 0.625 0  0.6325660748712082 0.3335187599557389 0  -0.06420945895056573 0.7549874027425891 0  -0.8769015540914771 0.2478802253893416 0  0.871875 0.871875 0  -0.6868091492840067 0.3270978624973681 0  -0.5363597469565949 0.412994850055505 0  -0.6803734992638302 0.5574295000651103 0  -0.7076253581162534 -0.8803439094224437 0  -0.8778089002295137 -0.5106896447504627 0  -0.3860184984222981 0.530566778071246 0  0.6109900617121508 0.1128453077697081 0  0.3896945134930274 -0.1915382873255086 0  0.7605656944697778 -0.06822134873122943 0  0.3576151269893478 0.5948388411612135 0  -0.5689902680792265 -0.5143596830118065 0  0.6262446286847614 -0.5735657901943212 0  0.2030558252325225 -0.5625263842513452 0  0.6123273142928579 0.7407533260723429 0  0.4016460890123554 -0.3042863223111857 0  -0.59039693199147 0.7578418819188018 0  0.7276932493917544 -0.3705808024528924 0  0.5222536818742854 -0.4713886230400014 0  -0.5101986527137737 0.8848365765607674 0  0.510560172809238 0.5356013299918891 0  -0.3603569195756083 0.75823710606415 0  0.1967279277813232 0.728226870058472 0  -0.6086880986371127 0.1545624071548516 0  -0.38105366729386 0.1511189987807864 0  -0.2944659463671584 -0.7359061804869591 0  0.5060729154966499 -0.3475227845833823 0  -0.09281616240412746 -0.06197858250969457 0  0.7649739583333334 0.6673177083333334 0  0.7628906249999999 0.890234375 0  -0.2666864184909611 0.2585504071132311 0  0.3635064892129658 0.3878003602709461 0  -0.2339409722222222 0.8901937905844155 0  -0.1718792125974916 -0.8957733325456778 0  0.1001768566329531 0.4023510017391879 0  0.3120260172693757 -0.4540546875576884 0  0.7804062804433681 0.1896628610854537 0  0.4087715451998049 0.187961780041608 0  -0.1584963477271457 0.5451611892421655 0  -0.8926817849258324 0.463022006336401 0  0.2338091473445219 -0.07576267331277289 0  0.08171112182813692 -0.2349087687359925 0  0.04635385178956847 -0.1044635073718474 0  -0.4377391632114205 -0.6448874471423088 0  -0.1907678351227189 0.6480215912813945 0  0.300605946475244 0.4741444604171038 0  -0.2145033720757486 -0.06751709909419711 0  0.6069191921170397 -0.005492331448357812 0  0.0214718770761248 0.6032397936031719 0  0.5476675683364878 0.8992752415326501 0  0.4387475014316537 0.9093708953002239 0  -0.4932997685306436 -0.4381009159993523 0  0.2515197695339056 -0.1791673369138964 0  -0.7291666666666667 -0.6088789682539681 0  -0.9166666666666667 -0.6875 0  0.620579540363709 -0.2122431523583302 0  -0.484950136419973 0.6719440339397442 0  0.2857044415400258 0.0137589173127316 0  -0.8945708364098356 -0.288306105327986 0  0.4043102720140535 0.7842914560451557 0  0.04123256238752064 -0.9026968245801402 0  0.2003676884403109 -0.9091888601740487 0  0.1068775558538842 -0.7373377130403223 0  -0.4804566783514427 -0.1763307203045643 0  0.108286342087769 -0.3993789328997278 0  -0.191883080105361 -0.3640821726430649 0  -0.07025064492006244 0.2984876656890053 0  -0.7039324641409584 0.788312126296613 0  -0.7311286585775438 0.8932502354831682 0  0.5171409396884947 0.1503852691889257 0  0.4229392823658633 -0.003216522184234835 0  -0.5621736087218259 -0.919558629836806 0  -0.626474064879544 -0.7266572613636506 0  0.2446828746617422 0.2867616783302419 0  0.1759429608742923 0.4776611759306416 0  -0.3468240303741654 -0.5260416435617549 0  -0.7465808808425306 0.4069574477998361 0  -0.7819962170660292 0.2802441065650652 0  -0.3742623214119594 -0.8547800509641984 0  0.1014498009713561 0.8506721983266377 0  0.4285217620918213 -0.5230190595570253 0  0.4091738370487775 -0.6256346204225141 0  0.78125 0.46875 0  0.90625 0.53125 0  -0.4791801348852565 0.2553992655702126 0  0.7843318610782772 -0.7086046956885941 0  0.8909728264971901 -0.7355183796514634 0  0.7041908166528879 -0.7830649143180282 0  0.7311821352
[...]
<PointData  Scalars="f_31-2"> 
<DataArray  type="Float64"  Name="f_31-2"  format="ascii">0.0000000000000000e+00  0.0000000000000000e+00  1.0000000000000000e+01  1.0000000000000000e+01  5.0000756059642226e+00  1.0000000000000000e+01  5.0000756255319132e+00  0.0000000000000000e+00  5.0000755971903894e+00  0.0000000000000000e+00  2.5000534817766935e+00  2.5000534736177795e+00  0.0000000000000000e+00  1.0000000000000000e+01  7.5000534797649392e+00  1.0000000000000000e+01  7.5000534711296707e+00  7.0833933025084796e+00  2.9167266288750455e+00  3.7500698399372419e+00  7.5000534506545682e+00  2.5694990485499893e+00  5.3664544023352816e+00  1.8750419948203931e+00  8.1250419967258694e+00  8.6905064156355731e+00  1.4504751845904007e+00  3.7500698440566294e+00  5.5270353412185811e+00  8.3854533882849722e+00  1.6146200492731517e+00  6.7361757471607593e+00  1.3675528553866403e+00  6.5710370624212020e+00  5.1025549586433989e+00  3.6545828378312288e+00  6.9298121757671547e+00  3.8858320370751178e+00  6.0913410376520192e+00  8.7500289290963877e+00  4.2728625217774336e+00  8.5444902191340102e+00  1.2500289352218523e+00  0.0000000000000000e+00  1.0000000000000000e+01  8.7500289337858828e+00  1.2800382375913013e+00  2.6954390831702293e+00  7.0316279547054306e+00  6.2500698696402806e+00  3.7500698662222973e+00  1.2500289187788214e+00  8.7500289442413539e+00  0.0000000000000000e+00  0.0000000000000000e+00  1.0000000000000000e+01  3.7500698262702157e+00  1.0000000000000000e+01  0.0000000000000000e+00  6.2500698530120617e+00  1.0000000000000000e+01  2.9793492273799562e+00  5.3251171830018000e+00  4.2136727238637022e+00  1.7360365982785653e+00  2.5349735562517686e+00  2.6339842263991855e+00  8.1994452924898429e+00  7.5830790953442477e+00  4.9887066551734502e+00  5.7503557724503702e+00  6.0084320591695857e+00  4.5753160273863509e+00  8.1636343986879267e-01  8.3335290007428198e-01  2.0284257858617862e+00  2.7665788764438433e+00  9.0625219420414656e+00  8.9062754628952305e+00  7.5457490176322981e+00  5.6250741364238737e+00  9.0775936221779641e-01  4.6109985027281857e+00  7.5425803459190970e+00  6.4593033187961142e+00  7.5604342042202370e+00  8.1250419939823022e+00  9.0792876813450736e+00  2.4010075438444640e+00  7.0734192845609989e-01  9.2477475203828652e-01  9.2926913902057748e+00  3.6559347803278235e+00  9.1210708280969701e+00  7.9169241692959984e+00  9.3452535354509951e+00  4.3750741590954361e+00  6.5364261654985589e-01  9.3483779300972394e+00  1.8750420002491073e+00  6.1698317820825306e+00  6.2269248155467238e+00  5.8653781544856187e+00  6.6227672804983655e+00  1.3541978644858166e+00  0.0000000000000000e+00  2.0944757999278045e+00  8.3667000729064309e+00  6.8750628884211897e+00  2.1426626872621539e+00  0.0000000000000000e+00  7.7317189164685207e-01  3.4277919919034621e+00  3.5508604118028466e+00  4.4625484817847472e+00  4.7478768237108113e+00  8.2298763774304842e+00  7.3226614731301236e+00  6.7564962592052842e+00  1.9684633464071191e+00  3.2856551657032957e+00  8.1250420064796511e+00  4.1989908140429471e+00  5.2324809054571917e+00  1.0000000000000000e+01  3.0820110405745575e+00  3.1120568082863982e+00  1.9875550628623533e+00  5.6250741763796359e+00  6.0054625042380740e+00  6.4113231447653503e+00  3.3572989066835048e+00  6.7307180786412095e+00  7.3687934509105233e+00  6.1923867633487575e+00  4.9761891595451173e+00  7.5015013901804228e-01  5.6113423430551004e+00  3.1153344677691832e+00  3.6252600431370690e+00  5.0241050494798705e+00  4.3750741540816511e+00  4.7000221750592468e+00  9.3750147483561168e+00  9.2721230337577456e+00  9.3750147462277624e+00  4.2501429670277604e+00  6.6910369958422908e+00  1.0734799547097666e+00  8.6991130361342357e+00  5.7900943387196575e+00  1.3541978632933962e+00  3.1250628656835326e+00  8.2417238610343020e+00  4.3523889901778468e+00  5.3729851522775780e+00  8.0732759486682308e+00  7.7759978745955980e+00  6.8750628793943349e+00  7.4135688852480257e+00  9.3945455403515865e+00  4.7042154797304869e+00  5.6304292768284991e+00  9.3452535367607261e+00  3.5440627013455481e+00  6.2501475616805313e-01  0.0000000000000000e+00  1.0000000000000000e+01  9.3750147519202489e+00  6.5523330933003521e-01  1.2753166606189550e+00  1.4248993375537058e+00  2.3700338133707053e+00  2.6377423003240428e+00  7.3672740354897481e+00  6.2501475317861455e-01  0.0000000000000000e+00  8.4636296242025129e+00  3.1288140872280970e+00  4.0153537946485169e+00  1.9102944812720346e+00  2.8780341176422146e+00  4.5761225119210245e+00  5.0192270849822673e+00  9.3744041818474013e+00  3.1250628915567109e+00  1.8750420022164740e+00  1.0000000000000000e+01  4.3750741486541163e+00  1.0000000000000000e+01  1.0000000000000000e+01  1.0000000000000000e+01  8.1250420067378677e+00  5.6250741725101081e+00  1.8750420072231999e+00  0.0000000000000000e+00  0.0000000000000000e+00  0.0000000000000000e+00  0.0000000000000000e+00  1.0000000000000000e+01  1.0000000000000000e+01  8.1628716200149434e+00  4.6790279184210375e+00  6.1550675684870737e-01  9.3593901142001759e+00  1.5659899737101373e+00  2.3182515929416323e+00  1.5981688872787583e+00  1.4619067148761051e+00  6.1096992171927489e-01  3.0699696312023366e+00  8.0549936740126711e+00  6.9485344229171542e+00  8.8028562374570996e+00  6.7881396042403805e+00  2.1550960147526466e+00  8.1312650227229586e+00  6.0153509177928202e+00  8.0616798093778907e+00  7.0082914926981470e+00  2.0480606948944926e+00  8.6384976050773261e+00  7.6113199581402755e+00  2.4490593264508944e+00  7.5528534236276714e+00  3.1982792152613748e+00  5.9837116444419394e+00  1.9566031086473583e+00  3.0947941152297971e+00  3.5277379223692789e+00  7.5304175263148352e+00  4.5359939764003876e+00  8.8248970674146872e+00  8.8144806323460276e+00  3.6666369749384540e+00  6.8175960364561963e+00  3.8303656771776557e+00  4.1406767807046068e+00  5.5009589431818826e+00  6.5601967917360291e+00  8.9020569656305160e+00  7.0439182704311225e+00  4.2075915257181702e+00  5.3660376164650669e-01  6.1691162950052965e+00  5.4086305755497364e+00  5.2318446542607049e+00  2.8113626102168072e+00  4.0462330463426222e+00  6.5030970584213508e+00  3.9275544961309743e+00  8.0346397244538430e+00  5.1074349563367738e+00  7.7383871411939449e+00  7.1937958550828345e+00  2.5335551547201702e+00  6.2576686226147249e+00  1.3541978635613123e+00  4.1667653545687572e-01  8.1029401379546471e+00  2.5753040162505298e+00  6.4285903246836869e+00  5.2715828137257215e-01  7.0216122158704612e+00  5.2062382489486438e+00  6.0019103382848726e+00  5.5344623164277209e+00  2.5977716776483151e+00  5.5415062183434944e+00  4.0406567873327557e+00  4.6488219066073428e+00  1.4803715793747962e+00  1.3443877027281386e+00  7.5857566956456157e+00  7.1147559326398291e+00  2.1891799402745904e+00  1.8676715280812519e+00  6.2234844649505545e+00  5.8797875251256251e+00  3.2659445138120700e+00  1.2671248983544772e+00  1.0900443047692401e+00  3.1287513040029702e+00  5.5073236451562879e+00  7.1426679097317649e+00  7.0459297029392127e+00  8.9062754633108341e+00  9.5312610922506842e+00  2.6041545045716479e+00  8.9216844282789545e+00  9.4548770137193099e+00  8.5209879551828998e+00  8.6559416549864245e+00  4.0971662512270662e-01  4.6569833230040003e-01  1.0787681648394618e+00  3.8315647195011744e+00  1.0014717085431990e+00  5.1183295601748591e-01  4.5387979081543184e-01  8.7055613254806163e-01  8.6162206897963245e-01  9.4636742697905518e+00  3.5641334936666675e+00  2.0918358498777043e+00  6.8929957685310841e+00  4.6184255219704031e+00  5.1124327055569490e+00  4.1642189428346565e+00  1.1573933807619325e+00  6.5675367548003623e+00  5.6047175490740244e+00  3.0685765234733262e+00  3.3544443443174230e+00  3.9263906559871470e-01  7.8125479500616972e+00  9.4766612729882524e+00  9.5335618339434252e+00  9.3769678274059718e+00  2.3538707683010180e+00  2.6389344164279152e+00  2.0250658388802094e+00  6.2037332774392269e+00  8.7276942641891377e+00  3.3623000658520596e+00  6.6056649990779288e+00  6.1690923685529855e+00  4.2006028394526735e+00  7.3680883976281555e+00  4.1056784702357101e+00  1.8604032518919156e+00  8.6720505127890952e+00  3.4375666711851314e+00  8.9005437039518434e+00  8.6073866099499541e-01  9.5349209275146993e+00  3.3516203836915570e-01  2.4266422717933351e+00  8.3456160963408657e+00  8.0077108558674812e+00  7.9445029526496684e+00  4.6875752365470875e+00  1.0612569030753638e+00  3.2682134986133610e-01  9.0086548209172950e+00  9.6741890024872550e+00  3.4606892057742678e+00  6.5625666585924360e+00  7.6406924021115046e+00  7.1875584273028927e+00  9.6740520994980486e+00  9.0625219468290990e+00  6.4221676647135579e+00  5.6454884544109056e+00  2.8125584325503001e+00  1.2161387478835743e+00  1.0383151217402340e+00  1.6700803188196780e+00  9.6737977003443643e+00  3.1322609825558612e-01  3.1358760886294357e-01  9.6741890021940158e+00  9.6726268092114509e+00  5.3125752315088590e+00  4.0264181121891379e-01  9.6722547926641393e+00  8.5493340993159723e+00  7.9137025248994313e+00  5.5670327537281468e+00  5.9351501151605524e+00  8.4375356293707675e+00  6.9272344298456474e+00  6.7043261202228832e+00  5.0090857598124332e+00  5.4242361047228416e+00  3.2682135015269431e-01  1.5671327136265123e+00  8.5160177507402093e+00  3.7601754957163216e+00  4.2459545681601885e+00  2.6280010159339739e+00  4.9740624791296373e+00  5.9375723299279333e+00  2.4652834870967868e+00  3.5636342477870087e+00  3.1236847720888905e+00  3.8902453132158730e+00  7.8917038354434039e+00  7.2056252126877762e+00  9.1104467608655071e+00  5.0295669022018332e+00  2.4357319990313773e+00  9.6091147597451720e-01  3.5192458612960782e+00  8.6643400662168570e+00  9.1834117171749856e+00  4.1667653283619382e-01  3.7002994472577089e-01  7.8300759837150755e+00  8.4825396921611400e+00  3.9100416802947682e+00  8.4197629812825614e+00  4.3709664971504232e+00  6.3145223816711624e+00  7.7238398783762445e+00  2.8441854713166554e+00  2.2440995853304599e+00  4.7679781439963556e+00  4.9466693140693758e+00  4.6765446433750970e+00  5.7104731350742766e+00  2.2334601160128567e+00  1.7861592397619195e+00  1.9614613049077538e+00  1.8157066270745688e+00  2.2751703008687532e+00  2.1875479810511060e+00  4.6237010635980296e+00  4.9851587238665189e+00  4.0668053124005672e+00  7.5095350840961288e+00  6.2737964062659124e+00  1.6762118947816311e+00  2.2455732113857678e+00  8.7382740205191993e+00  4.3193763562690188e+00  7.0654849311709462e+00  7.7144812287255675e+00  7.1771447823389565e+00  2.8125584450824497e+00  6.0718983716726829e+00  3.5026272696907585e+00  3.5257591898315725e+00  5.7828640066793824e+00  5.0416601296631551e+00  5.6013342715893097e+00  6.0282752706722524e+00  4.6019449425698307e+00  3.1400495479290855e+00  2.9688107262507555e+00  9.1022118901414633e+00  9.6853369033693362e+00  6.5846348917569220e+00  4.4010816917575912e-01  4.2517844314872697e+00  7.2670878694891501e+00  3.3833949687239020e+00  9.1341195334740011e+00  2.8599054368780967e+00  6.5004149014630643e+00  3.8736931239008174e+00  2.7629131297279996e+00  9.6463457465966851e+00  5.1555851591098401e-01  5.7413523615006463e+00  8.1236838318271793e+00  9.3936577828243948e+00  3.1250741291254347e-01  8.9382100288528452e+00  4.0625723276304599e+00  3.3346277345977033e+00  1.6010719254747590e+00  3.9385361685233761e-01  6.3229053704866907e+00  1.0396483512810835e+00  1.6776027191952521e+00  1.7103780601175518e+00  5.1728140412284107e+00  5.1812987608428642e+00  8.4375356529773153e+00  8.3118632747915164e+00  6.2498642735922596e+00  1.0000000000000000e+01  2.8788132227113765e+00  9.5211192940610712e-01  7.7469180624516989e+00  3.5818325620739473e+00  3.1222827043510084e+00  4.6511513602635697e+00  1.8399618872832455e+00  1.5625356294126467e+00  7.8809069601693826e+00  8.6022017807656113e+00  2.3055944132928823e+00  2.2125711347178578e+00  6.5625666805612237e+00  3.0478580888866040e+00  5.8178178865932271e+00  2.8994787420151655e+00  4.2798331355615744e+00  3.9650097113407958e+00  4.6172611064667031e+00  1.0000000000000000e+01  9.3102504810388478e+00  7.6588590453000078e+00  7.3092926968622862e+00  7.2998640888627686e-01  8.4530329554846269e+00  7.9395974736944899e+00  6.4655219981214547e+00  4.8655644283817985e+00  1.5625356450940839e+00  9.6687454061750451e+00  4.1495921245188843e+00  3.7864342306870955e+00  1.4117276171052178e+00  9.2887710183656824e-01  7.2282407096533046e+00  8.0892623738437006e+00  3.9981820869931353e+00  5.1752732859505581e+00  5.8166047152608265e+00  5.8755640877502628e+00  5.5916848960170942e+00  1.8454995295638674e+00  7.9179921547391396e+00  0.0000000000000000e+00  1.7187888630783636e+00  2.0801274420249003e+00  4.4673162814951795e+00  2.8772875199683585e+00  3.3552958417286862e+00  9.1912500198338112e+00  7.0537330570516881e+00  7.2984055202439109e+00  4.5896266617094481e+00  3.5367101513880284e-01  8.4129114356132515e+00  4.3683392286181855e+00  4.8852986294656420e+00  4.9119871765312677e+00  1.0000000000000000e+01  8.2563865362259570e+00  7.8518354562901029e+00  8.3390104675806977e+00  3.2280340802065961e+00  9.6875074095050575e+00  9.2187683646833314e+00  9.6360670542857481e+00  0.0000000000000000e+00  9.6875074114060773e+00  4.4059930402325023e+00  1.2025081731609562e+00  1.5601982402270300e+00  6.5929335528471036e+00  6.6140037536686433e+00  6.8537132276061747e+00  6.7681863576528789e+00  9.6537622337697808e+00  9.0792045054425436e+00  5.8753388545001703e+00  5.4531007041757418e+00  7.7936964690658472e-01  3.8759035024758202e+00  5.3716558953437819e+00  3.6738033303981501e+00  2.5910991620666435e+00  1.1309786765514362e+00  1.6382336029997788e+00  1.0937754639559965e+00  3.3975535909786219e+00  8.4469859180097870e+00  1.9310189310221078e+00  7.0513849239584774e+00  0.0000000000000000e+00  2.2835832856024125e+00  9.6629797948900791e+00  6.1575256119001520e-01  6.8043755677596938e+00  5.2652927969834007e+00  3.1634424659062348e+00  6.0624716044000229e+00  5.2842372559830144e+00  4.7004741867304389e+00  4.9984858903305858e+00  7.2593346659356808e+00  9.6726982045804206e+00  9.8715306170799266e-01  9.0221436419328889e+00  5.3491475960148858e+00  9.6805166397140336e+00  5.7531630826396745e+00  6.7351436142548797e+00  5.0238932341889626e+00  2.1517019519021168e+00  4.5464552656825488e+00  1.0000000000000000e+01  5.3851171724279316e+00  1.1117180529639488e+00  6.5032143946046670e+00  1.3926682441762313e+00  4.3693888527819684e+00  9.0136191507520937e+00  7.5019213035993397e+00  1.2388843002465086e+00  1.1355278113976626e+00  3.3215284114401604e+00  9.3104096695752636e-01  2.1380585083009183e+00  2.5144664402574324e+00  2.3124560050861889e+00  2.7610180910024211e+00  2.6540635282130016e+00  9.6726268083186415e+00  1.0000000000000000e+01  1.3764387931375386e+00  5.3970729909893302e+00  8.1320784456735655e+00  7.4030986860010257e+00  7.1108979547596665e+00  7.7005833782098430e+00  9.2448292859277359e+00  4.0625723787553225e+00  8.7835086023516116e+00  3.8025807688557620e+00  4.0519313075928594e+00  6.2590434899797156e+00  9.1319154822463684e+00  5.6921459733563289e+00  3.1757056063740872e+00  8.3061682806708355e+00  4.3540506939762214e+00  5.8482166885031708e+00  8.3441273803102085e+00  8.2091919844750709e+00  5.3125752723486208e+00  0.0000000000000000e+00  9.1497777634980313e+00  0.0000000000000000e+00  8.1097701946063037e+00  4.6886016398622754e+00  2.8190290816231482e+00  2.8411671366173805e+00  2.8839584369619318e+00  6.7709366235672146e+00  4.3071049947046127e+00  7.8125479679443757e+00  1.3049395611490233e+00  3.9486562182510454e+00  8.5607428370250478e+00  7.5835583648786162e+00  1.3541978738141731e+00  4.3200202518055777e+00  4.3706815235178738e+00  5.2614030533823888e+00  8.9019471471244742e+00  7.8832681741224420e+00  6.8771475761038685e+00  6.3450579576053698e+00  8.5005807367487787e+00  9.3616617389380341e+00  9.6872007272670224e+00  7.4961318272792772e+00  7.5026706841860658e-01  5.0003420828588201e+00  3.4328782577264610e-01  5.6227383496207919e+00  9.6872324431393135e+00  1.0000000000000000e+01  1.0000000000000000e+01  9.0625219406223163e+00  3.4375666797198323e+00  8.4375356536764343e+00  0.0000000000000000e+00  3.1250741024842238e-01  5.3125752617838655e+00  0.0000000000000000e+00  1.0000000000000000e+01  2.8125584600340732e+00  9.0625219473711276e+00  1.0000000000000000e+01  7.1875584632718450e+00  6.5625667013022770e+00  1.0000000000000000e+01  1.0000000000000000e+01  1.0000000000000000e+01  0.0000000000000000e+00  0.0000000000000000e+00  0.0000000000000000e+00  4.6875752444410583e+00  0.0000000000000000e+00  3.4375667043585856e+00  7.8125479660018993e+00  0.0000000000000000e+00  9.3752194752929496e-01  9.3752195476956945e-01  0.0000000000000000e+00  2.1875479667317941e+00  5.9375723742771918e+00  0.0000000000000000e+00  7.1875584449149947e+00  1.0000000000000000e+01  1.0000000000000000e+01  9.6875074102309018e+00  0.0000000000000000e+00  5.9375723759976653e+00  0.0000000000000000e+00  4.6875752158522923e+00  1.0000000000000000e+01  1.0000000000000000e+01  2.3394039289043365e+00  7.5881125018450888e+00  2.7150974445058468e-01  6.1947416431870215e+00  5.8359638718177180e+00  8.0118915092942853e+00  3.9028637356974660e+00  2.1994437530684889e+00  2.4395533541506507e+00  1.9686110776819787e+00  9.0094869505882382e+00  1.7187888674131835e+00  2.9465393628802233e-01  1.4650967159882256e+00  8.5925960193599966e+00  6.3402960352341520e-01  7.8984866011823884e-01  3.0734827841710727e-01  6.3846997299948638e-01  4.6876109359850721e-01  7.0309445272662852e-01  6.5383311716875159e-01  9.0403339298414505e+00  8.6983634875473221e+00  2.3298329432835030e+00  5.6559125358188505e+00  9.6549133533484319e+00  9.2138063949744131e-01  6.4285449008717634e+00  4.2321042667290305e+00  1.3895458158956688e+00  3.9336383018272887e+00  2.9024869388175474e+00  3.5971244471650521e+00  7.6692291243320021e+00  9.1959730097096219e+00  2.1354362636866422e+00  8.8561313302912055e+00  8.5756654576297571e+00  6.7626163298032989e+00  3.4620672025706871e+00  4.8112405228512802e+00  7.0110765157157307e+00  2.6394692155502306e+00  5.4063159194917301e+00  9.0107784796122612e+00  2.8814460845936392e+00  6.2790292020811487e+00  8.2666343859447746e+00  7.7508053378233033e+00  8.2093243589337881e+00  3.0115454439302131e-01  2.6150271354125580e+00  2.3161856111498214e+00  2.0314838271717388e+00  1.3290096211456688e+00  1.6808868089223246e+00  4.1289030883558748e+00  5.2346784969843139e+00  4.8742532971027632e+00  7.7871070851252151e+00  9.3782319290168186e+00  9.1554631517862326e+00  7.4632600174090529e+00  7.2907281173887757e+00  3.9762895190493923e+00  5.2643599218367614e+00  1.2164966883737303e+00  1.4035809382061806e+00  1.8587642873112207e+00  1.6686870989457552e+00  2.0061487240422800e+00  1.9044269224223094e+00  1.7388004304171598e+00  6.3937079257053018e+00  6.3156393226005934e+00  3.8698244183640687e+00  5.9077110534610409e+00  8.9760843730329274e+00  3.3747360039957139e+00  2.9305347151916137e+00  9.7218161812804205e+00  8.5883302462195186e+00  8.7685712863261429e+00  5.4447969836659489e+00  9.1451696272508209e-01  6.4625442724367455e+00  4.8484956212415060e+00  3.3267740697926982e+00  6.9908728373878217e+00  7.8375258798572185e+00  1.7683854017432992e+00  8.4212150937453121e+00  8.1752958985640003e+00  7.7780155204022607e+00  9.6755208635192709e+00  8.7576805943867022e+00  8.8677761412680240e+00  9.1676756592442867e+00  8.4758421320913886e+00  3.1089599084401178e+00  1.1425546682653518e+00  1.6655002337485234e+00  9.6858295393206344e+00  3.2035807364800921e+00  1.6785184571541112e+00  6.4961835098641254e+00  7.0407107571090899e+00  4.4670542762941583e+00  3.6460987783106154e+00  4.7685523447075040e+00  2.2458058437107709e+00  2.3777392262208492e+00  2.1689625935419463e+00  2.4930441361930786e-01  3.0439636876377278e+00  8.2005674335661247e+00  7.8338016644768631e+00  1.4366659108984325e+00  9.2304088228928798e+00  7.8835699634366705e+00  8.4915949561966197e+00  7.3575565381619370e+00  6.2626337195630830e+00  1.7163035173205854e+00  1.4698093314372316e+00  1.1649372895957404e+00  1.2518467616845050e+00  5.9384119614455875e+00  7.7287753201031