<?xml version="1.0"?>
<VTKFile type="UnstructuredGrid"  version="0.1"  >
<UnstructuredGrid>
<Piece  NumberOfPoints="2513" NumberOfCells="4852">
<Points>
<DataArray  type="Float64"  NumberOfComponents="3"  format="ascii">-1 1 0  -1 -1 0  1 -1 0  1 1 0  0 -1 0  1 0 0  0 1 0  -1 0 0  0 0 0  -1 -0.5 0  -0.5 -1 0  -0.5 1 0  -1 0.5 0  1 -0.5 0  0.5 -1 0  1 0.5 0  0.5 1 0  0.4166666666666666 -0.4166666666666667 0  -0.4166666666666667 0.4166666666666667 0  -0.25 -0.5 0  0.5 0.25 0  -0.4861111111111112 -0.06944444444444445 0  0.0732758620689655 0.507183908045977 0  -0.625 -0.625 0  0.625 0.625 0  0.7380952380952381 -0.25 0  -0.7099116161616161 0.2105429292929293 0  -0.25 0.7380952380952381 0  0.105392156862745 -0.6348039215686275 0  0.6770833333333334 -0.6770833333333333 0  -0.6770833333333334 0.6770833333333334 0  0.3472222222222222 -0.06944444444444446 0  -0.7264957264957265 -0.3044871794871795 0  0.3141940982507127 0.7297313660835709 0  0.02049587951122483 -0.3227479397556124 0  -0.2690972222222223 0.1475694444444444 0  0.3859500089908372 -0.7274430156831472 0  -0.2228477945123298 -0.1761765495248019 0  0.2182539682539683 0.1884920634920635 0  0.75 0.375 0  -0.145442219440968 -0.7602211097204841 0  0.7088913690476191 0.0427827380952381 0  -0.75 -1 0  -1 -0.75 0  1 0.75 0  0.75 1 0  -0.7439982703698937 -0.04614153195464455 0  -0.4609235096577606 -0.3356498099556895 0  0.4063134471431929 0.4895621842856023 0  0.25 -1 0  -0.25 -1 0  -0.75 1 0  0.75 -1 0  -1 -0.25 0  -1 0.25 0  1 -0.25 0  -0.25 1 0  1 -0.75 0  -1 0.75 0  0.25 1 0  1 0.25 0  -0.4041423272138783 -0.7597141090712928 0  0.06500839607911253 0.7578103030529481 0  -0.1572801182352047 0.3838997021864289 0  -0.6528005242053915 0.4409494757946086 0  -0.4930160984848485 0.1544744318181818 0  -0.4732142857142858 0.7752976190476191 0  0.6398809523809523 -0.4538690476190476 0  0.5166054117396399 -0.2161233620965164 0  -0.002273787244753427 0.2232363985975174 0  0.1500564496765022 -0.1524955293952667 0  0.2016720420046758 -0.4410343282803009 0  -0.08495178036419618 0.6274139771124571 0  -0.8367311471133162 0.3642591720794645 0  -0.8333333333333334 -0.625 0  -0.594323836800685 -0.8231079456002283 0  -0.4466957714776065 -0.5349126855671806 0  0.8125 0.5625 0  0.78125 0.78125 0  0.5091392650016769 0.7947130883338923 0  0.125 -0.8382681931833136 0  -0.8184523809523809 -0.8184523809523809 0  -0.07781530426104531 -0.5819319697006881 0  0.5085055196703295 0.04967610411902112 0  0.2918471072074933 -0.276017202318847 0  0.5120763537765269 -0.5898771553229597 0  0.625 -0.8585349462365591 0  0.8158532234335381 -0.8158532234335381 0  -0.5198088446315396 0.5739411553684605 0  -0.8585349462365591 0.625 0  -0.8150493805516597 0.8156205699829586 0  0.8585349462365591 -0.625 0  -0.2688268348649726 0.5439331383603209 0  0.8242100426758139 -0.4436043596336612 0  0.5833756314287952 0.4479378157143976 0  0.8690476190476191 -0.125 0  -0.125 0.8690476190476191 0  -0.8692745600729823 0.125 0  0.8696725120759167 0.125 0  -0.625 0.8711516477451908 0  0.2339522463269718 0.3879558377955778 0  0.2453709502295031 0.5655822922838026 0  0.1730610651637797 0.02021709580868947 0  0.3245402594056757 -0.5644672020485209 0  -0.7291666666666666 -0.4816595441595442 0  -1 -0.375 0  -0.5811140848639904 -0.2127276307675001 0  0.673332592838314 0.2158348143233718 0  0.375 1 0  -0.5714768890989919 0.2985103444040069 0  -1 -0.125 0  -0.8453692574786325 -0.1875 0  -0.3144549134065865 -0.02408675326008025 0  -0.2898414972096258 -0.3336092734780093 0  -0.1075052092206287 -0.4224330421314983 0  -0.05043970703604117 -0.1652278959397459 0  0.6459672950297897 -0.1113415301525317 0  0.4645210271029513 0.6398480556579343 0  0.3512863754411909 0.0937979496253573 0  -0.6063160985568274 0.03891469652249891 0  -0.3428819444444445 0.8690476190476191 0  0.625 1 0  -0.1602164796159982 0.02697860906625157 0  0.04648110064133829 -0.4808416424239687 0  1 0.875 0  -0.3836102479201657 0.6484936449177356 0  -0.3776011723096096 0.263078478984336 0  -0.6024978259969829 -0.3949628096211138 0  0.125 1 0  0.2010781308272777 0.8456221018461906 0  0.2822509696388829 -0.845902544691141 0  -0.3285533674953515 -0.6289773550938936 0  0.3461306793221754 0.278777492464833 0  0.4737475672408696 -0.8508448959534423 0  0.2384632828836344 -0.7029523187242811 0  -0.004777287059791593 0.3759269695907358 0  -0.8499735021850066 -0.3912320205328522 0  0.1222536293721587 0.2963971539625205 0  -0.3769456520999688 -0.203572526805711 0  -0.2749617205755651 -0.8464290792698902 0  0.004805888512766143 -0.747174355248311 0  -0.125 -1 0  -0.06001061822252458 -0.8724007765244854 0  0.875 0.4375 0  0.854421179608893 0.271342359217786 0  0.875 1 0  -0.1499861095763589 0.2358309656934888 0  0.3381943639137225 0.8663061796405532 0  -0.7853090110442228 0.4998412775277108 0  0.7398165998560814 -0.5535192694951373 0  0.1580042122341573 -0.3100246140259917 0  -0.7291666666666667 -0.7142857142857142 0  -0.375 -1 0  0.6483368386154684 0.8514905990110488 0  -0.1295370103291928 -0.2826118305021242 0  0.07458201853700455 0.1123894386563915 0  0.6146465857036327 -0.3161203659316075 0  0.5551898493894731 -0.740296118159085 0  0.375 -1 0  0.482702798370208 -0.084133350091034 0  0.87890625 0.68359375 0  -0.05917195534525846 0.4971092425697621 0  0.1260710309213975 0.6343750312956699 0  0.8690476190476191 -0.3077066815262848 0  -0.2912010232560567 0.3668168386732139 0  -0.875 1 0  -1 0.875 0  1 -0.875 0  0.875 -1 0  -0.8689564281364567 -0.006189266075306407 0  -0.7449425635110547 0.08458938160051771 0  -0.7150266761936593 -0.1739444581417552 0  -0.5260034831318311 -0.711099823962112 0  -0.4724626808827322 -0.871722230709409 0  0.4734436795977052 0.377714794132168 0  -0.875 -1 0  -1 -0.875 0  0.6927189078571988 0.5156567235715964 0  -0.3742497615796874 -0.4296005251260107 0  -0.1969436423297711 -0.6387157229772615 0  -0.6179496409766825 -0.08933356056510935 0  -0.424405057115988 0.04452428810878029 0  -0.08479048335844169 0.1279607007132633 0  0.003830300099055113 0.8712085230656206 0  0.8748778838820267 -1.379218479898026e-05 0  -0.375 1 0  -0.625 1 0  1 0.125 0  -0.125 1 0  1 -0.375 0  1 -0.125 0  1 -0.625 0  0.625 -1 0  0.125 -1 0  -0.625 -1 0  -1 -0.625 0  -1 0.125 0  -1 0.375 0  -1 0.625 0  1 0.375 0  1 0.625 0  0.6325660748712082 0.3335187599557389 0  -0.06420945895056573 0.7549874027425891 0  -0.8769015540914771 0.2478802253893416 0  0.871875 0.871875 0  -0.6868091492840067 0.3270978624973681 0  -0.5363597469565949 0.412994850055505 0  -0.6803734992638302 0.5574295000651103 0  -0.7076253581162534 -0.8803439094224437 0  -0.8778089002295137 -0.5106896447504627 0  -0.3860184984222981 0.530566778071246 0  0.6109900617121508 0.1128453077697081 0  0.3896945134930274 -0.1915382873255086 0  0.7605656944697778 -0.06822134873122943 0  0.3576151269893478 0.5948388411612135 0  -0.5689902680792265 -0.5143596830118065 0  0.6262446286847614 -0.5735657901943212 0  0.2030558252325225 -0.5625263842513452 0  0.6123273142928579 0.7407533260723429 0  0.4016460890123554 -0.3042863223111857 0  -0.59039693199147 0.7578418819188018 0  0.7276932493917544 -0.3705808024528924 0  0.5222536818742854 -0.4713886230400014 0  -0.5101986527137737 0.8848365765607674 0  0.510560172809238 0.5356013299918891 0  -0.3603569195756083 0.75823710606415 0  0.1967279277813232 0.728226870058472 0  -0.6086880986371127 0.1545624071548516 0  -0.38105366729386 0.1511189987807864 0  -0.2944659463671584 -0.7359061804869591 0  0.5060729154966499 -0.3475227845833823 0  -0.09281616240412746 -0.06197858250969457 0  0.7649739583333334 0.6673177083333334 0  0.7628906249999999 0.890234375 0  -0.2666864184909611 0.2585504071132311 0  0.3635064892129658 0.3878003602709461 0  -0.2339409722222222 0.8901937905844155 0  -0.1718792125974916 -0.8957733325456778 0  0.1001768566329531 0.4023510017391879 0  0.3120260172693757 -0.4540546875576884 0  0.7804062804433681 0.1896628610854537 0  0.4087715451998049 0.187961780041608 0  -0.1584963477271457 0.5451611892421655 0  -0.8926817849258324 0.463022006336401 0  0.2338091473445219 -0.07576267331277289 0  0.08171112182813692 -0.2349087687359925 0  0.04635385178956847 -0.1044635073718474 0  -0.4377391632114205 -0.6448874471423088 0  -0.1907678351227189 0.6480215912813945 0  0.300605946475244 0.4741444604171038 0  -0.2145033720757486 -0.06751709909419711 0  0.6069191921170397 -0.005492331448357812 0  0.0214718770761248 0.6032397936031719 0  0.5476675683364878 0.8992752415326501 0  0.4387475014316537 0.9093708953002239 0  -0.4932997685306436 -0.4381009159993523 0  0.2515197695339056 -0.1791673369138964 0  -0.7291666666666667 -0.6088789682539681 0  -0.9166666666666667 -0.6875 0  0.620579540363709 -0.2122431523583302 0  -0.484950136419973 0.6719440339397442 0  0.2857044415400258 0.0137589173127316 0  -0.8945708364098356 -0.288306105327986 0  0.4043102720140535 0.7842914560451557 0  0.04123256238752064 -0.9026968245801402 0  0.2003676884403109 -0.9091888601740487 0  0.1068775558538842 -0.7373377130403223 0  -0.4804566783514427 -0.1763307203045643 0  0.108286342087769 -0.3993789328997278 0  -0.191883080105361 -0.3640821726430649 0  -0.07025064492006244 0.2984876656890053 0  -0.7039324641409584 0.788312126296613 0  -0.7311286585775438 0.8932502354831682 0  0.5171409396884947 0.1503852691889257 0  0.4229392823658633 -0.003216522184234835 0  -0.5621736087218259 -0.919558629836806 0  -0.626474064879544 -0.7266572613636506 0  0.2446828746617422 0.2867616783302419 0  0.1759429608742923 0.4776611759306416 0  -0.3468240303741654 -0.5260416435617549 0  -0.7465808808425306 0.4069574477998361 0  -0.7819962170660292 0.2802441065650652 0  -0.3742623214119594 -0.8547800509641984 0  0.1014498009713561 0.8506721983266377 0  0.4285217620918213 -0.5230190595570253 0  0.4091738370487775 -0.6256346204225141 0  0.78125 0.46875 0  0.90625 0.53125 0  -0.4791801348852565 0.2553992655702126 0  0.7843318610782772 -0.7086046956885941 0  0.8909728264971901 -0.7355183796514634 0  0.7041908166528879 -0.7830649143180282 0  0.7311821352
[...]
<PointData  Scalars="velocity-2"> 
<DataArray  type="Float64"  Name="velocity-2"  format="ascii">0.0000000000000000e+00  0.0000000000000000e+00  1.0000000000000000e+01  1.0000000000000000e+01  5.4792699156135551e+00  1.0000000000000000e+01  5.4793888219093771e+00  0.0000000000000000e+00  5.4792006347495379e+00  0.0000000000000000e+00  2.8438452437604664e+00  2.8438357194932418e+00  0.0000000000000000e+00  1.0000000000000000e+01  7.8325445897402464e+00  1.0000000000000000e+01  7.8325071834625701e+00  7.4573459181647248e+00  3.3015734365265015e+00  4.1964153290597821e+00  7.8323658532861957e+00  2.9204279870078445e+00  5.8410706473033596e+00  2.1455954958403969e+00  8.3851155253799252e+00  8.8771553842879047e+00  1.6649540341473181e+00  4.1964483651673037e+00  5.9976865541226907e+00  8.6125432921851246e+00  1.8512977656190079e+00  7.1402904268196092e+00  1.5706689934607483e+00  6.9877966072023456e+00  5.5811101565175507e+00  4.0955029441068831e+00  7.3176985679924691e+00  4.3392944748888764e+00  6.5387583778211891e+00  8.9286429771337890e+00  4.7418220023797142e+00  8.7507229924098695e+00  1.4366719611182166e+00  0.0000000000000000e+00  1.0000000000000000e+01  8.9286626584431108e+00  1.4708868042622973e+00  3.0592735695406157e+00  7.4103920848151867e+00  6.6885866971912789e+00  4.1966067619210028e+00  1.4365479898854070e+00  8.9287283325787321e+00  0.0000000000000000e+00  0.0000000000000000e+00  1.0000000000000000e+01  4.1963346436590054e+00  1.0000000000000000e+01  0.0000000000000000e+00  6.6884947339062339e+00  1.0000000000000000e+01  3.3698777206933856e+00  5.8006026058217639e+00  4.6809093410806621e+00  1.9887533561794164e+00  2.8823830488085043e+00  2.9915671982806540e+00  8.4503403885092805e+00  7.9064118283583307e+00  5.4678531310898864e+00  6.2136635915553828e+00  6.4602604879134686e+00  5.0516664667862070e+00  9.4013585415459333e-01  9.5967508403609025e-01  2.3180024808883211e+00  3.1373785943333159e+00  9.1978450558572131e+00  9.0633917717102772e+00  7.8732494887953290e+00  6.0927092719580580e+00  1.0450316000131823e+00  5.0878590907794736e+00  7.8704218407500814e+00  6.8840140116035835e+00  7.8862825445393145e+00  8.3850995995433113e+00  9.2122718316747800e+00  2.7339323438132621e+00  8.1488605334852671e-01  1.0645243735514052e+00  9.3953642591350111e+00  4.0969078587168166e+00  9.2481836883807560e+00  8.2022142180617248e+00  9.4404056784948569e+00  4.8471606512974192e+00  7.5316623116936043e-01  9.4430985716081715e+00  2.1455724450874825e+00  6.6129102154816648e+00  6.6667562680652912e+00  6.3238719974339679e+00  7.0356787991281529e+00  1.5553932009923750e+00  0.0000000000000000e+00  2.3920901947494402e+00  8.5962102352431415e+00  7.2678542236318284e+00  2.4460126462928886e+00  0.0000000000000000e+00  8.9052772111041933e-01  3.8538984972341415e+00  3.9853543724755918e+00  4.9367658791127553e+00  5.2264023925814671e+00  8.4768438207865540e+00  7.6733674125829712e+00  7.1589611585885518e+00  2.2507962329212527e+00  3.7013879362879587e+00  8.3851723911742955e+00  4.6656274763054704e+00  5.7095347994601466e+00  1.0000000000000000e+01  3.4814345039943571e+00  3.5139106381879652e+00  2.2721381602383435e+00  6.0929558494040448e+00  6.4572929765863645e+00  6.8394277408407671e+00  3.7784077438973127e+00  7.1351386642846446e+00  7.7148606783796403e+00  6.6341260006317704e+00  5.4554191860065533e+00  8.6408320812737149e-01  6.0794006533383911e+00  3.5175574720748637e+00  4.0642793697288040e+00  5.5032478588027338e+00  4.8471478782650372e+00  5.1780824564378092e+00  9.4658997627780401e+00  9.3777474334546369e+00  9.4658839481158488e+00  4.7185283624677004e+00  7.0986729371073016e+00  1.2348955935261505e+00  8.8845976297522729e+00  6.2516907968035120e+00  1.5554287015568238e+00  3.5281911592021582e+00  8.4872196054832507e+00  4.8238222912497788e+00  5.8473682662326096e+00  8.3397762864380169e+00  8.0777756257590703e+00  7.2677696170166204e+00  7.7550396408640010e+00  9.4825982381544272e+00  5.1822138191155718e+00  6.0979659060993354e+00  9.4404147643543812e+00  3.9780134090335202e+00  7.2027224205012552e-01  0.0000000000000000e+00  1.0000000000000000e+01  9.4659172674421868e+00  7.5497086501904664e-01  1.4654327197166139e+00  1.6358893021174243e+00  2.6995448347423729e+00  2.9956514135686700e+00  7.7134925007985968e+00  7.2026581790838873e-01  0.0000000000000000e+00  8.6805287703027965e+00  3.5320842633499749e+00  4.4748545367060411e+00  2.1852397352219310e+00  3.2593832209357942e+00  5.0524824946717350e+00  5.4982356008942661e+00  9.4653697880330423e+00  3.5283311332230340e+00  2.1455764854809436e+00  1.0000000000000000e+01  4.8471057969573801e+00  1.0000000000000000e+01  1.0000000000000000e+01  1.0000000000000000e+01  8.3851795705380123e+00  6.0929442917510261e+00  2.1456510079645428e+00  0.0000000000000000e+00  0.0000000000000000e+00  0.0000000000000000e+00  0.0000000000000000e+00  1.0000000000000000e+01  1.0000000000000000e+01  8.4182435612350144e+00  5.1568535619639784e+00  7.0927572795248750e-01  9.4525302394335053e+00  1.7962604763465388e+00  2.6420278641700121e+00  1.8327070824218163e+00  1.6779729445141041e+00  7.0408458849074107e-01  3.4684359753380192e+00  8.3236480686149292e+00  7.3346386327618376e+00  8.9742443265854170e+00  7.1879278914516194e+00  2.4599237417320925e+00  8.3905980037545849e+00  6.4667920664916876e+00  8.3295362404022359e+00  7.3891769981470299e+00  2.3400795384874611e+00  8.8321806481498157e+00  7.9315686058886286e+00  2.7872424947072432e+00  7.8795018377928114e+00  3.6073002452340819e+00  6.4366084935587198e+00  2.2374210563464629e+00  3.4952752166026464e+00  3.9606757304776052e+00  7.8595472392611292e+00  5.0115639798957474e+00  8.9932490304526507e+00  8.9842669689443841e+00  4.1082383619945526e+00  7.2149270058584580e+00  4.2809732325396324e+00  4.6050838712062871e+00  5.9723450450316120e+00  6.9778361104432873e+00  9.0597975864427376e+00  7.4215695948569174e+00  4.6744915144998460e+00  6.1850564528827257e-01  6.6122555759200452e+00  5.8823094464142409e+00  5.7088841898057385e+00  3.1865153745656820e+00  4.5069785381419596e+00  6.9248052083246092e+00  4.3830510969368355e+00  8.3058064677993126e+00  5.5860326589867491e+00  8.0444075977106042e+00  7.5573334422530287e+00  2.8806421366269541e+00  6.6955565437176325e+00  1.5554406677974755e+00  4.8039468395794699e-01  8.3657665168927000e+00  2.9268727928972593e+00  6.8555001740173456e+00  6.0763532570453371e-01  7.4012808345183929e+00  5.6835985908183426e+00  6.4540548395067869e+00  6.0049818890334361e+00  2.9516579923741761e+00  6.0117897480209610e+00  4.5012375966073206e+00  5.1262085773605364e+00  1.6989510295211472e+00  1.5442768094215151e+00  7.9088425585649667e+00  7.4858178512720048e+00  2.4979829357655197e+00  2.1373266674174873e+00  6.6634997925996302e+00  6.3375555799878454e+00  3.6803029553450619e+00  1.4561395373843407e+00  1.2538713320826445e+00  3.5321307064476919e+00  5.9785861939337943e+00  7.5110437330374831e+00  7.4234084250087555e+00  9.0633964510478826e+00  9.5995944380230256e+00  2.9587419679643747e+00  9.0766943672831744e+00  9.5342412839958754e+00  8.7303161759260028e+00  8.8472789985322908e+00  4.7236870256647751e-01  5.3686737760029724e-01  1.2409012913205602e+00  4.2824097882048653e+00  1.1524053518453936e+00  5.8994746935201525e-01  5.2324793002841319e-01  1.0023381367268516e+00  9.9209161373621313e-01  9.5417753138712662e+00  3.9994177108232196e+00  2.3891612542636658e+00  7.2840348187508841e+00  5.0954280925167135e+00  5.5909933388977633e+00  4.6296577741860956e+00  1.3308340689159113e+00  6.9845717444147830e+00  6.0730458237197960e+00  3.4668621453268789e+00  3.7754277769345621e+00  4.5269624727254038e-01  8.1100460062892399e+00  9.5528938750676105e+00  9.6015506191980062e+00  9.4675687532663222e+00  2.6815149748383997e+00  2.9970704772361225e+00  2.3142843646681874e+00  6.6447579837071338e+00  8.9093931515417353e+00  3.7839025624708897e+00  7.0198896179343722e+00  6.6121182555786602e+00  4.6673340927564526e+00  7.7142114167142468e+00  4.5688845839759722e+00  2.1291991790525291e+00  8.8612497192224975e+00  3.8644053979684130e+00  9.0584669935727309e+00  9.9108465649266864e-01  9.6027221551208495e+00  3.8646218662694087e-01  2.7623992033815830e+00  8.5778248571622253e+00  8.2821795413614243e+00  8.2265449982309100e+00  5.1654802549354981e+00  1.2208970124179774e+00  3.7687545252365867e-01  9.1515521305224929e+00  9.7217507765048783e+00  3.8891557430924171e+00  6.9798771583626964e+00  7.9577497218492530e+00  7.5516235428816518e+00  9.7216481855732813e+00  9.1978700456804869e+00  6.8495053665918446e+00  6.1125784816666302e+00  3.1877134038549406e+00  1.3979744805840999e+00  1.1946658229438647e+00  1.9142440818007869e+00  9.7214321022112031e+00  3.6118908501527774e-01  3.6158106093056930e-01  9.7217487908629430e+00  9.7204353391735552e+00  5.7882425383603024e+00  4.6421290015688710e-01  9.7201054989303444e+00  8.7549638299925032e+00  8.1994306606093676e+00  6.0365374089085737e+00  6.3903729566741356e+00  8.6578207196322250e+00  7.3153034471619218e+00  7.1109729350164628e+00  5.4881372508479140e+00  5.8975924229504360e+00  3.7685953496734242e-01  1.7975038395564573e+00  8.7260373895496670e+00  4.2070834078833581e+00  4.7141888569595469e+00  2.9850903975930105e+00  5.4532656523600620e+00  6.3926623936512623e+00  2.8052184778281561e+00  3.9988786570337185e+00  3.5265988983383210e+00  4.3440367698362943e+00  8.1800070948578156e+00  7.5680264566231186e+00  9.2390289026825059e+00  5.5086631937439607e+00  2.7724178023324435e+00  1.1059534189153131e+00  3.9515690486772361e+00  8.8545488308162668e+00  9.3016726407391843e+00  4.8038086214735154e-01  4.2664843698422894e-01  8.1255860054136715e+00  8.6969672814523360e+00  4.3646932555250313e+00  8.6423621424897235e+00  4.8428264158981325e+00  6.7488976830461231e+00  8.0315272377796880e+00  3.2224042965512769e+00  2.5593145668907948e+00  5.2466038867326574e+00  5.4259884294119018e+00  5.1542623361274682e+00  6.1751065104927987e+00  2.5474262919306976e+00  2.0452441835291633e+00  2.2427543518514401e+00  2.0786941257871105e+00  2.5940269673210286e+00  2.4963265203897751e+00  5.1008022151170902e+00  5.4643946899115079e+00  4.5284668430131747e+00  7.8408423394591980e+00  6.7106636739525483e+00  1.9210919070021806e+00  2.5609887098857511e+00  8.9184795158519261e+00  4.7898519425444945e+00  7.4411677182231228e+00  8.0232339816575582e+00  7.5422891985409564e+00  3.1878579360595602e+00  6.5203256064598696e+00  3.9338935639085668e+00  3.9584700454120019e+00  6.2447282056570499e+00  5.5205081902324906e+00  6.0697853135879170e+00  6.4789761236909262e+00  5.0787287792980562e+00  3.5443190012417336e+00  3.3584785918952234e+00  9.2319456331597944e+00  9.7312786398210473e+00  7.0004001486042240e+00  5.0738603983060515e-01  4.7202139995420467e+00  7.6233993510203453e+00  3.8063466717007359e+00  9.2593553154974728e+00  3.2396267751054317e+00  6.9222766971134417e+00  4.3265560676589647e+00  3.1334315895855642e+00  9.6979671174536684e+00  5.9427285796126972e-01  6.2049029529561990e+00  8.3838875953417471e+00  9.4818819783466708e+00  3.6037023887513947e-01  9.0909147107713189e+00  4.5239645620478584e+00  3.7539850560309991e+00  1.8359950881117888e+00  4.5409953839427741e-01  6.7567281186951140e+00  1.1961719450455923e+00  1.9226561064713947e+00  1.9596606461592578e+00  5.6507135869586707e+00  5.6590611110643758e+00  8.6579542169691877e+00  8.5484313178786877e+00  6.6881992378809976e+00  1.0000000000000000e+01  3.2601639886669251e+00  1.0958414672282057e+00  8.0519545349027712e+00  4.0182549931551650e+00  3.5250732751395799e+00  5.1286280170613265e+00  2.1060494273678518e+00  1.7921771048534945e+00  8.1704258381678283e+00  8.8007328584619806e+00  2.6278773332069472e+00  2.5241431631390823e+00  6.9800366775564733e+00  3.4443719771048036e+00  6.2783865416975360e+00  3.2828526727613094e+00  4.7490581349431853e+00  4.4222823180174302e+00  5.0941760404581204e+00  1.0000000000000000e+01  9.4104162136563687e+00  7.9738729644961692e+00  7.6614289572080843e+00  8.4092885726528854e-01  8.6713192559508183e+00  8.2221688276434719e+00  6.8898492700298446e+00  5.3447014105742987e+00  1.7923058296301753e+00  9.7171193626723653e+00  4.6145021318465949e+00  4.2347903442182551e+00  1.6208644992492562e+00  1.0692236988772106e+00  7.5884044751017576e+00  8.3537730805071142e+00  4.4568798863423105e+00  5.6531137272920828e+00  6.2770603212900840e+00  6.3335797013549424e+00  6.0604021605726617e+00  2.1123345927173158e+00  8.2031610493385809e+00  0.0000000000000000e+00  1.9691954081041012e+00  2.3760489573513670e+00  4.9415518726886081e+00  3.2585388399374935e+00  3.7762222010136504e+00  9.3083729122228860e+00  7.4304330645718668e+00  7.6516633235245575e+00  5.0661219154978205e+00  4.0778606165512959e-01  8.6364335570595010e+00  4.8402091085247028e+00  5.3644060968556246e+00  5.3912802378117108e+00  1.0000000000000000e+01  8.4999964413489586e+00  8.1447767683469632e+00  8.5720910321416817e+00  3.6393045624256186e+00  9.7331440696665990e+00  9.3319760547621708e+00  9.6891987712683711e+00  0.0000000000000000e+00  9.7331578458283818e+00  4.8788172817326467e+00  1.3823757555090341e+00  1.7896167249883503e+00  7.0080130015246436e+00  7.0275687410589924e+00  7.2481206468072656e+00  7.1696360537003905e+00  9.7043109987956768e+00  9.2121755964157721e+00  6.3332811045130928e+00  5.9257672947520481e+00  8.9763026801578893e-01  4.3288858616961639e+00  5.8461321681185856e+00  4.1158044400723490e+00  2.9442032032831045e+00  1.3006329374060377e+00  1.8780510903012149e+00  1.2580704368386737e+00  3.8215666565141753e+00  8.6660222036037258e+00  2.2085667037577728e+00  7.4283334736254272e+00  0.0000000000000000e+00  2.6032578198789182e+00  9.7121988884390049e+00  7.0955449972958340e-01  7.2028508155091053e+00  5.7417765916933661e+00  3.5695662642051125e+00  6.5114569701741623e+00  5.7604700958519643e+00  5.1784511678001044e+00  5.4776197861797495e+00  7.6164691508911870e+00  9.7204836769666709e+00  1.1360039855158490e+00  9.1631244283266398e+00  5.8240989749354037e+00  9.7271721477960078e+00  6.2162135410719683e+00  7.1393265525403473e+00  5.5029249902667825e+00  2.4560853279906150e+00  5.0222996069984358e+00  1.0000000000000000e+01  5.8593226015005033e+00  1.2785926126183875e+00  6.9247993834801580e+00  1.5991976352656589e+00  4.8412546001656738e+00  9.1558322627689428e+00  7.8340285994665724e+00  1.4239037009455660e+00  1.3058518715220115e+00  3.7399703757034048e+00  1.0716668590201013e+00  2.4408348559814317e+00  2.8595283420609796e+00  2.6354546224462712e+00  3.1312965216617648e+00  3.0136488996336621e+00  9.7204253057734835e+00  1.0000000000000000e+01  1.5806673024687377e+00  5.8710808601552218e+00  8.3913027105433073e+00  7.7455930584289234e+00  7.4822490271932152e+00  8.0108718175620020e+00  9.3543380981989035e+00  4.5242708695858100e+00  8.9575514971503676e+00  4.2518338983049002e+00  4.5128195361900927e+00  6.6967635137917334e+00  9.2574522097091769e+00  6.1574296375267448e+00  3.5827336325526025e+00  8.5434357017610481e+00  4.8254013658584878e+00  6.3073462920394388e+00  8.5765199425378409e+00  8.4587467508334093e+00  5.7885200817381763e+00  0.0000000000000000e+00  9.2727881653077961e+00  0.0000000000000000e+00  8.3716792063032006e+00  5.1664940264496400e+00  3.1947703479403340e+00  3.2190792752541668e+00  3.2657846916946585e+00  7.1721912967553196e+00  4.7771682138853375e+00  8.1101563988026211e+00  1.4992685865908493e+00  4.4050907795707355e+00  8.7647913034690390e+00  7.9068808338390983e+00  1.5554492648212137e+00  4.7904011416540326e+00  4.8426524226313621e+00  5.7380831161163934e+00  9.0597288021293370e+00  8.1726429358056158e+00  7.2695552695455765e+00  6.7774391863105672e+00  8.7126154881066942e+00  9.4544438816107732e+00  9.7329118788217048e+00  7.8288349801965822e+00  8.6423406478118669e-01  5.4796595785748936e+00  3.9581951734881032e-01  6.0904226474804810e+00  9.7329183100779471e+00  1.0000000000000000e+01  1.0000000000000000e+01  9.1978429207719188e+00  3.8644488809872821e+00  8.6579838338559423e+00  0.0000000000000000e+00  3.6036159304570320e-01  5.7884703164580298e+00  0.0000000000000000e+00  1.0000000000000000e+01  3.1879209192377984e+00  9.1978759112391391e+00  1.0000000000000000e+01  7.5518383291849727e+00  6.9801729029572908e+00  1.0000000000000000e+01  1.0000000000000000e+01  1.0000000000000000e+01  0.0000000000000000e+00  0.0000000000000000e+00  0.0000000000000000e+00  5.1655560178943025e+00  0.0000000000000000e+00  3.8645896375932489e+00  8.1101439984150971e+00  0.0000000000000000e+00  1.0791512106315295e+00  1.0792043062196248e+00  0.0000000000000000e+00  2.4962671021085154e+00  6.3929508080162476e+00  0.0000000000000000e+00  7.5517282149961416e+00  1.0000000000000000e+01  1.0000000000000000e+01  9.7331498393047298e+00  0.0000000000000000e+00  6.3929735369373688e+00  0.0000000000000000e+00  5.1653590028529788e+00  1.0000000000000000e+01  1.0000000000000000e+01  2.6655315531434352e+00  7.9110044627005394e+00  3.1309333172412679e-01  6.6363456714470734e+00  6.2957254905246529e+00  8.2857690496811092e+00  4.3572320471201405e+00  2.5094373761860509e+00  2.7765939565959012e+00  2.2509282498006398e+00  9.1522697401164965e+00  1.9692761916297552e+00  3.3975897249223314e-01  1.6816294723730503e+00  8.7924077827794029e+00  7.3059388327799091e-01  9.0971929296892684e-01  3.5442756847911522e-01  7.3567835734986109e-01  5.4039707406539750e-01  8.0998842196333498e-01  7.5335440345323335e-01  9.1787902514615372e+00  8.8839833166443682e+00  2.6548292386174168e+00  6.1225379765049475e+00  9.7053020592303714e+00  1.0606183199087671e+00  6.8552836957259968e+00  4.6999041845039304e+00  1.5956313465158904e+00  4.3893422859499420e+00  3.2859860940061707e+00  4.0344610025391123e+00  7.9829893532157179e+00  9.3124373338124702e+00  2.4379043453038380e+00  9.0202220536744271e+00  8.7777910409871289e+00  7.1645554026713549e+00  3.8905379163913620e+00  5.2903644610602267e+00  7.3917013125808833e+00  2.9976507077148149e+00  5.8801347080395887e+00  9.1533844516414984e+00  3.2631569846953816e+00  6.7156114839196084e+00  8.5089767832195733e+00  8.0554505073430267e+00  8.4588650756331205e+00  3.4725924450572387e-01  2.9707263104590109e+00  2.6397360274934800e+00  2.3215233962502198e+00  1.5267300804092803e+00  1.9263194804447195e+00  4.5930427386522599e+00  5.7116352184035772e+00  5.3536282714794501e+00  8.0875395141762638e+00  9.4686812973796464e+00  9.2776825981994033e+00  7.7994641306302199e+00  7.6447012797889311e+00  4.4342452832644774e+00  5.7409853333847005e+00  1.3984280982606263e+00  1.6116765737680379e+00  2.1272479087550096e+00  1.9125406807325309e+00  2.2930849939711102e+00  2.1786279984795605e+00  1.9919858573151981e+00  6.8229638860847404e+00  6.7500423763828721e+00  4.3225856018914568e+00  6.3643291898467655e+00  9.1235180308796711e+00  3.7972134452909581e+00  3.3167565839642350e+00  9.7624703694642019e+00  8.7886942292019263e+00  8.9446662688781089e+00  5.9178257292899428e+00  1.0527494278064988e+00  6.8871116643494492e+00  5.3276873735488941e+00  3.7457275300286317e+00  7.3734537668186135e+00  8.1321630337488848e+00  2.0252851526232853e+00  8.6437245155386915e+00  8.4291581121429591e+00  8.0795191893553415e+00  9.7228997765891805e+00  8.9352153431894621e+00  9.0302560017125799e+00  9.2881851500037467e+00  8.6911296254352983e+00  3.5105781696966387e+00  1.3138934819511563e+00  1.9089817797676190e+00  9.7317050300736145e+00  3.6129427617480916e+00  1.9237071457880381e+00  6.9183385016919123e+00  7.4185962996546220e+00  4.9412756053824403e+00  4.0864145731679447e+00  5.2473737971461931e+00  2.5613274483166371e+00  2.7080708605062065e+00  2.4755211751753770e+00  2.8748647432932184e-01  3.4401126098141321e+00  8.4512427583234988e+00  8.1289513696124551e+00  1.6492812023763523e+00  9.3419604719092408e+00  8.1728378633790477e+00  8.7048377156256045e+00  7.7048376933871872e+00  6.7001470316291263e+00  1.9665064773289822e+00  1.6869754524057572e+00  1.3394424407938048e+00  1.4387183488208855e+00  6.3936227159139145e+00  8.03598