<?xml version="1.0"?>
<VTKFile type="UnstructuredGrid"  version="0.1"  >
<UnstructuredGrid>
<Piece  NumberOfPoints="2513" NumberOfCells="4852">
<Points>
<DataArray  type="Float64"  NumberOfComponents="3"  format="ascii">-1 1 0  -1 -1 0  1 -1 0  1 1 0  0 -1 0  1 0 0  0 1 0  -1 0 0  0 0 0  -1 -0.5 0  -0.5 -1 0  -0.5 1 0  -1 0.5 0  1 -0.5 0  0.5 -1 0  1 0.5 0  0.5 1 0  0.4166666666666666 -0.4166666666666667 0  -0.4166666666666667 0.4166666666666667 0  -0.25 -0.5 0  0.5 0.25 0  -0.4861111111111112 -0.06944444444444445 0  0.0732758620689655 0.507183908045977 0  -0.625 -0.625 0  0.625 0.625 0  0.7380952380952381 -0.25 0  -0.7099116161616161 0.2105429292929293 0  -0.25 0.7380952380952381 0  0.105392156862745 -0.6348039215686275 0  0.6770833333333334 -0.6770833333333333 0  -0.6770833333333334 0.6770833333333334 0  0.3472222222222222 -0.06944444444444446 0  -0.7264957264957265 -0.3044871794871795 0  0.3141940982507127 0.7297313660835709 0  0.02049587951122483 -0.3227479397556124 0  -0.2690972222222223 0.1475694444444444 0  0.3859500089908372 -0.7274430156831472 0  -0.2228477945123298 -0.1761765495248019 0  0.2182539682539683 0.1884920634920635 0  0.75 0.375 0  -0.145442219440968 -0.7602211097204841 0  0.7088913690476191 0.0427827380952381 0  -0.75 -1 0  -1 -0.75 0  1 0.75 0  0.75 1 0  -0.7439982703698937 -0.04614153195464455 0  -0.4609235096577606 -0.3356498099556895 0  0.4063134471431929 0.4895621842856023 0  0.25 -1 0  -0.25 -1 0  -0.75 1 0  0.75 -1 0  -1 -0.25 0  -1 0.25 0  1 -0.25 0  -0.25 1 0  1 -0.75 0  -1 0.75 0  0.25 1 0  1 0.25 0  -0.4041423272138783 -0.7597141090712928 0  0.06500839607911253 0.7578103030529481 0  -0.1572801182352047 0.3838997021864289 0  -0.6528005242053915 0.4409494757946086 0  -0.4930160984848485 0.1544744318181818 0  -0.4732142857142858 0.7752976190476191 0  0.6398809523809523 -0.4538690476190476 0  0.5166054117396399 -0.2161233620965164 0  -0.002273787244753427 0.2232363985975174 0  0.1500564496765022 -0.1524955293952667 0  0.2016720420046758 -0.4410343282803009 0  -0.08495178036419618 0.6274139771124571 0  -0.8367311471133162 0.3642591720794645 0  -0.8333333333333334 -0.625 0  -0.594323836800685 -0.8231079456002283 0  -0.4466957714776065 -0.5349126855671806 0  0.8125 0.5625 0  0.78125 0.78125 0  0.5091392650016769 0.7947130883338923 0  0.125 -0.8382681931833136 0  -0.8184523809523809 -0.8184523809523809 0  -0.07781530426104531 -0.5819319697006881 0  0.5085055196703295 0.04967610411902112 0  0.2918471072074933 -0.276017202318847 0  0.5120763537765269 -0.5898771553229597 0  0.625 -0.8585349462365591 0  0.8158532234335381 -0.8158532234335381 0  -0.5198088446315396 0.5739411553684605 0  -0.8585349462365591 0.625 0  -0.8150493805516597 0.8156205699829586 0  0.8585349462365591 -0.625 0  -0.2688268348649726 0.5439331383603209 0  0.8242100426758139 -0.4436043596336612 0  0.5833756314287952 0.4479378157143976 0  0.8690476190476191 -0.125 0  -0.125 0.8690476190476191 0  -0.8692745600729823 0.125 0  0.8696725120759167 0.125 0  -0.625 0.8711516477451908 0  0.2339522463269718 0.3879558377955778 0  0.2453709502295031 0.5655822922838026 0  0.1730610651637797 0.02021709580868947 0  0.3245402594056757 -0.5644672020485209 0  -0.7291666666666666 -0.4816595441595442 0  -1 -0.375 0  -0.5811140848639904 -0.2127276307675001 0  0.673332592838314 0.2158348143233718 0  0.375 1 0  -0.5714768890989919 0.2985103444040069 0  -1 -0.125 0  -0.8453692574786325 -0.1875 0  -0.3144549134065865 -0.02408675326008025 0  -0.2898414972096258 -0.3336092734780093 0  -0.1075052092206287 -0.4224330421314983 0  -0.05043970703604117 -0.1652278959397459 0  0.6459672950297897 -0.1113415301525317 0  0.4645210271029513 0.6398480556579343 0  0.3512863754411909 0.0937979496253573 0  -0.6063160985568274 0.03891469652249891 0  -0.3428819444444445 0.8690476190476191 0  0.625 1 0  -0.1602164796159982 0.02697860906625157 0  0.04648110064133829 -0.4808416424239687 0  1 0.875 0  -0.3836102479201657 0.6484936449177356 0  -0.3776011723096096 0.263078478984336 0  -0.6024978259969829 -0.3949628096211138 0  0.125 1 0  0.2010781308272777 0.8456221018461906 0  0.2822509696388829 -0.845902544691141 0  -0.3285533674953515 -0.6289773550938936 0  0.3461306793221754 0.278777492464833 0  0.4737475672408696 -0.8508448959534423 0  0.2384632828836344 -0.7029523187242811 0  -0.004777287059791593 0.3759269695907358 0  -0.8499735021850066 -0.3912320205328522 0  0.1222536293721587 0.2963971539625205 0  -0.3769456520999688 -0.203572526805711 0  -0.2749617205755651 -0.8464290792698902 0  0.004805888512766143 -0.747174355248311 0  -0.125 -1 0  -0.06001061822252458 -0.8724007765244854 0  0.875 0.4375 0  0.854421179608893 0.271342359217786 0  0.875 1 0  -0.1499861095763589 0.2358309656934888 0  0.3381943639137225 0.8663061796405532 0  -0.7853090110442228 0.4998412775277108 0  0.7398165998560814 -0.5535192694951373 0  0.1580042122341573 -0.3100246140259917 0  -0.7291666666666667 -0.7142857142857142 0  -0.375 -1 0  0.6483368386154684 0.8514905990110488 0  -0.1295370103291928 -0.2826118305021242 0  0.07458201853700455 0.1123894386563915 0  0.6146465857036327 -0.3161203659316075 0  0.5551898493894731 -0.740296118159085 0  0.375 -1 0  0.482702798370208 -0.084133350091034 0  0.87890625 0.68359375 0  -0.05917195534525846 0.4971092425697621 0  0.1260710309213975 0.6343750312956699 0  0.8690476190476191 -0.3077066815262848 0  -0.2912010232560567 0.3668168386732139 0  -0.875 1 0  -1 0.875 0  1 -0.875 0  0.875 -1 0  -0.8689564281364567 -0.006189266075306407 0  -0.7449425635110547 0.08458938160051771 0  -0.7150266761936593 -0.1739444581417552 0  -0.5260034831318311 -0.711099823962112 0  -0.4724626808827322 -0.871722230709409 0  0.4734436795977052 0.377714794132168 0  -0.875 -1 0  -1 -0.875 0  0.6927189078571988 0.5156567235715964 0  -0.3742497615796874 -0.4296005251260107 0  -0.1969436423297711 -0.6387157229772615 0  -0.6179496409766825 -0.08933356056510935 0  -0.424405057115988 0.04452428810878029 0  -0.08479048335844169 0.1279607007132633 0  0.003830300099055113 0.8712085230656206 0  0.8748778838820267 -1.379218479898026e-05 0  -0.375 1 0  -0.625 1 0  1 0.125 0  -0.125 1 0  1 -0.375 0  1 -0.125 0  1 -0.625 0  0.625 -1 0  0.125 -1 0  -0.625 -1 0  -1 -0.625 0  -1 0.125 0  -1 0.375 0  -1 0.625 0  1 0.375 0  1 0.625 0  0.6325660748712082 0.3335187599557389 0  -0.06420945895056573 0.7549874027425891 0  -0.8769015540914771 0.2478802253893416 0  0.871875 0.871875 0  -0.6868091492840067 0.3270978624973681 0  -0.5363597469565949 0.412994850055505 0  -0.6803734992638302 0.5574295000651103 0  -0.7076253581162534 -0.8803439094224437 0  -0.8778089002295137 -0.5106896447504627 0  -0.3860184984222981 0.530566778071246 0  0.6109900617121508 0.1128453077697081 0  0.3896945134930274 -0.1915382873255086 0  0.7605656944697778 -0.06822134873122943 0  0.3576151269893478 0.5948388411612135 0  -0.5689902680792265 -0.5143596830118065 0  0.6262446286847614 -0.5735657901943212 0  0.2030558252325225 -0.5625263842513452 0  0.6123273142928579 0.7407533260723429 0  0.4016460890123554 -0.3042863223111857 0  -0.59039693199147 0.7578418819188018 0  0.7276932493917544 -0.3705808024528924 0  0.5222536818742854 -0.4713886230400014 0  -0.5101986527137737 0.8848365765607674 0  0.510560172809238 0.5356013299918891 0  -0.3603569195756083 0.75823710606415 0  0.1967279277813232 0.728226870058472 0  -0.6086880986371127 0.1545624071548516 0  -0.38105366729386 0.1511189987807864 0  -0.2944659463671584 -0.7359061804869591 0  0.5060729154966499 -0.3475227845833823 0  -0.09281616240412746 -0.06197858250969457 0  0.7649739583333334 0.6673177083333334 0  0.7628906249999999 0.890234375 0  -0.2666864184909611 0.2585504071132311 0  0.3635064892129658 0.3878003602709461 0  -0.2339409722222222 0.8901937905844155 0  -0.1718792125974916 -0.8957733325456778 0  0.1001768566329531 0.4023510017391879 0  0.3120260172693757 -0.4540546875576884 0  0.7804062804433681 0.1896628610854537 0  0.4087715451998049 0.187961780041608 0  -0.1584963477271457 0.5451611892421655 0  -0.8926817849258324 0.463022006336401 0  0.2338091473445219 -0.07576267331277289 0  0.08171112182813692 -0.2349087687359925 0  0.04635385178956847 -0.1044635073718474 0  -0.4377391632114205 -0.6448874471423088 0  -0.1907678351227189 0.6480215912813945 0  0.300605946475244 0.4741444604171038 0  -0.2145033720757486 -0.06751709909419711 0  0.6069191921170397 -0.005492331448357812 0  0.0214718770761248 0.6032397936031719 0  0.5476675683364878 0.8992752415326501 0  0.4387475014316537 0.9093708953002239 0  -0.4932997685306436 -0.4381009159993523 0  0.2515197695339056 -0.1791673369138964 0  -0.7291666666666667 -0.6088789682539681 0  -0.9166666666666667 -0.6875 0  0.620579540363709 -0.2122431523583302 0  -0.484950136419973 0.6719440339397442 0  0.2857044415400258 0.0137589173127316 0  -0.8945708364098356 -0.288306105327986 0  0.4043102720140535 0.7842914560451557 0  0.04123256238752064 -0.9026968245801402 0  0.2003676884403109 -0.9091888601740487 0  0.1068775558538842 -0.7373377130403223 0  -0.4804566783514427 -0.1763307203045643 0  0.108286342087769 -0.3993789328997278 0  -0.191883080105361 -0.3640821726430649 0  -0.07025064492006244 0.2984876656890053 0  -0.7039324641409584 0.788312126296613 0  -0.7311286585775438 0.8932502354831682 0  0.5171409396884947 0.1503852691889257 0  0.4229392823658633 -0.003216522184234835 0  -0.5621736087218259 -0.919558629836806 0  -0.626474064879544 -0.7266572613636506 0  0.2446828746617422 0.2867616783302419 0  0.1759429608742923 0.4776611759306416 0  -0.3468240303741654 -0.5260416435617549 0  -0.7465808808425306 0.4069574477998361 0  -0.7819962170660292 0.2802441065650652 0  -0.3742623214119594 -0.8547800509641984 0  0.1014498009713561 0.8506721983266377 0  0.4285217620918213 -0.5230190595570253 0  0.4091738370487775 -0.6256346204225141 0  0.78125 0.46875 0  0.90625 0.53125 0  -0.4791801348852565 0.2553992655702126 0  0.7843318610782772 -0.7086046956885941 0  0.8909728264971901 -0.7355183796514634 0  0.7041908166528879 -0.7830649143180282 0  0.7311821352
[...]
<PointData  Scalars="velocity-2"> 
<DataArray  type="Float64"  Name="velocity-2"  format="ascii">0.0000000000000000e+00  0.0000000000000000e+00  1.0000000000000000e+01  1.0000000000000000e+01  3.8472352591274639e+00  1.0000000000000000e+01  3.8468287565545105e+00  0.0000000000000000e+00  3.8472271222126597e+00  0.0000000000000000e+00  1.7602639171031869e+00  1.7603771189639337e+00  0.0000000000000000e+00  1.0000000000000000e+01  6.6008216603323158e+00  1.0000000000000000e+01  6.6009337970233544e+00  6.0888552567099392e+00  2.0758698512320373e+00  2.7397647915870342e+00  6.6014993053542836e+00  1.8124052238285118e+00  4.2031052560032585e+00  1.3039360645584768e+00  7.4068985242390308e+00  8.1675638663439454e+00  1.0021404973244492e+00  2.7397374557184446e+00  4.3640600613907212e+00  7.7536877649898965e+00  1.1181893378755337e+00  5.6774684145311634e+00  9.4390736810299958e-01  5.4873331203629601e+00  3.9452718034981360e+00  2.6610467951147703e+00  5.9049899523842120e+00  2.8529908394371457e+00  4.9542084131131272e+00  8.2489443436384704e+00  3.1846704513480395e+00  7.9684867626533968e+00  8.6149781593486874e-01  0.0000000000000000e+00  1.0000000000000000e+01  8.2488300877778062e+00  8.8250452354349607e-01  1.9071887039117592e+00  6.0262025420414895e+00  5.1269009542109689e+00  2.7395012756793591e+00  8.6161818975930482e-01  8.2485547270638762e+00  0.0000000000000000e+00  0.0000000000000000e+00  1.0000000000000000e+01  2.7399890894671719e+00  1.0000000000000000e+01  0.0000000000000000e+00  5.1272293011672243e+00  1.0000000000000000e+01  2.1240447596075396e+00  4.1622076882621588e+00  3.1327891447642569e+00  1.2043787137392914e+00  1.7864596204140213e+00  1.8607725753216282e+00  7.5049490838094028e+00  6.7062051073686293e+00  3.8366150055088521e+00  4.5924806191912042e+00  4.8646131238824522e+00  3.4534405410048792e+00  5.6040698809589629e-01  5.7214574902622628e-01  1.4144893976708608e+00  1.9611008327400548e+00  8.6807415504775545e+00  8.4641704542842096e+00  6.6585612818092486e+00  4.4639355595290748e+00  6.2359000260879638e-01  3.4861118370526767e+00  6.6546718288650997e+00  5.3606991560495922e+00  6.6773671029484918e+00  7.4068187757065544e+00  8.7039627932113177e+00  1.6869683437884837e+00  4.8520385738479005e-01  6.3535076744088126e-01  9.0020728425838339e+00  2.6622674013411332e+00  8.7620276004817992e+00  7.1341549150073833e+00  9.0757407316720400e+00  3.2741681588264537e+00  4.4819658902655707e-01  9.0800474431718801e+00  1.3038203745508425e+00  5.0393348394014845e+00  5.1015576684585708e+00  4.7128146375286670e+00  5.5466868484790801e+00  9.3450663433947145e-01  0.0000000000000000e+00  1.4623775808550308e+00  7.7285944584132578e+00  5.8393696475803454e+00  1.4972493744752589e+00  0.0000000000000000e+00  5.3061823147651355e-01  2.4769593217872234e+00  2.5765228280513295e+00  3.3522600204278943e+00  3.6112744051088743e+00  7.5456751083147520e+00  6.3809860709667587e+00  5.7010441072476690e+00  1.3709803161393810e+00  2.3636579645945286e+00  7.4065871140380102e+00  3.1203150170812188e+00  4.0710138584684836e+00  1.0000000000000000e+01  2.2036273924314043e+00  2.2271554599496532e+00  1.3848554857637825e+00  4.4632457028505206e+00  4.8619731389875565e+00  5.3063665521889041e+00  2.4207200648557046e+00  5.6716599738190112e+00  6.4376577794840770e+00  5.0641578211740645e+00  3.8247209404085774e+00  5.1471088999009851e-01  4.4498300266433137e+00  2.2295650627937071e+00  2.6371145593833298e+00  3.8700859594647592e+00  3.2742804050756713e+00  3.5670048703845136e+00  9.1175431592979912e+00  8.9732202337808893e+00  9.1175805622484987e+00  3.1646090967245391e+00  5.6252777072815059e+00  7.3857562935091936e-01  8.1792831812348492e+00  4.6342004259247318e+00  9.3454918330153935e-01  2.2371369012665605e+00  7.5614001838813456e+00  3.2543690822605535e+00  4.2098583319186407e+00  7.3385302713258254e+00  6.9519018617886426e+00  5.8398657212972678e+00  6.4931709763507177e+00  9.1450668950220688e+00  3.5712006104699192e+00  4.4691684733800434e+00  9.0757706292023883e+00  2.5710157533727469e+00  4.2846736667708490e-01  0.0000000000000000e+00  1.0000000000000000e+01  9.1174174438301812e+00  4.4932405374240036e-01  8.7925586664342226e-01  9.8418202421617262e-01  1.6640817312727365e+00  1.8637037219672958e+00  6.4358161639028948e+00  4.2848343042535553e-01  0.0000000000000000e+00  7.8590652472981066e+00  2.2402085236758591e+00  2.9625436599076465e+00  1.3292557564465817e+00  2.0461852353790091e+00  3.4542835852835738e+00  3.8658041674409684e+00  9.1167068500424921e+00  2.2368079970898540e+00  1.3038052220173755e+00  1.0000000000000000e+01  3.2743712081648324e+00  1.0000000000000000e+01  1.0000000000000000e+01  1.0000000000000000e+01  7.4065070033336236e+00  4.4633065814291362e+00  1.3038101213898907e+00  0.0000000000000000e+00  0.0000000000000000e+00  0.0000000000000000e+00  0.0000000000000000e+00  1.0000000000000000e+01  1.0000000000000000e+01  7.4568751113726606e+00  3.5479536093828550e+00  4.2195534776720672e-01  9.0955322248033283e+00  1.0835878589515959e+00  1.6258276097683615e+00  1.1064367348783763e+00  1.0102752514074798e+00  4.1883993842479411e-01  2.1942388248503755e+00  7.3146581553683703e+00  5.9279133123260737e+00  8.3214872693370339e+00  5.7382657098883820e+00  1.5064663917695940e+00  7.4148681481448167e+00  4.8722287248437999e+00  7.3232727846943897e+00  5.9985475662567280e+00  1.4285821160711880e+00  8.0963994267231616e+00  6.7417044208359433e+00  1.7226850091804877e+00  6.6678060681271472e+00  2.2945106012530254e+00  4.8386680412624896e+00  1.3624831581426262e+00  2.2135444756955107e+00  2.5576358082608932e+00  6.6394365942845628e+00  3.4180755286653026e+00  8.3519032549161025e+00  8.3374701571320085e+00  2.6708316532157266e+00  5.7729544802253878e+00  2.8066963062727286e+00  3.0698654940706596e+00  4.3376234484968172e+00  5.4744666669601036e+00  8.4581151255125544e+00  6.0410024178002724e+00  3.1276214172056536e+00  3.6770066880589364e-01  5.0386259843847956e+00  4.2452607291640838e+00  4.0706246387181482e+00  1.9950297658285867e+00  2.9887971693187727e+00  5.4099517926009817e+00  2.8877600932415848e+00  7.2877532643894014e+00  3.9497115184683289e+00  6.9037301905360087e+00  6.2223421455124814e+00  1.7856920338495006e+00  5.1355854458872106e+00  9.3455908295694390e-01  2.8538530926289574e-01  7.3776177451159102e+00  1.8168334807881199e+00  5.3258762026773763e+00  3.6123949534402444e-01  6.0144831000424350e+00  4.0454972766154125e+00  4.8577043276715237e+00  4.3715872065294432e+00  1.8335801816486379e+00  4.3785420028054940e+00  2.9840769035732837e+00  3.5203972334675537e+00  1.0232477818815457e+00  9.2753083124576052e-01  6.7092670981672864e+00  6.1265928658353532e+00  1.5312702553287485e+00  1.2986336613224727e+00  5.0979410209365010e+00  4.7283524512072468e+00  2.3478419695439459e+00  8.7353247407001422e-01  7.4997558440467460e-01  2.2399919488567290e+00  4.3440557659594621e+00  6.1606883762978626e+00  6.0435675485740479e+00  8.4641604581094683e+00  9.3373991220185406e+00  1.8383332441811628e+00  8.4853576279779794e+00  9.2298551469560106e+00  7.9366021540675140e+00  8.1201979316252189e+00  2.8062487586476326e-01  3.1901862454566332e-01  7.4222748650969383e-01  2.8073355276403404e+00  6.8849503918697819e-01  3.5073011072768173e-01  3.1092320515493399e-01  5.9783670372660069e-01  5.9167465627048721e-01  9.2422318305979534e+00  2.5871686274800703e+00  1.4602506726989646e+00  5.8615869124723758e+00  3.4928575191764719e+00  3.9546544015593228e+00  3.0901370547842815e+00  7.9692770139949642e-01  5.4833758028383954e+00  4.4427432818435086e+00  2.1930098845535420e+00  2.4183549779553615e+00  2.6891843957048533e-01  6.9990430363052898e+00  9.2604997138383069e+00  9.3406900590131610e+00  9.1203140614052831e+00  1.6521969593322408e+00  1.8645462737207767e+00  1.4118858943224830e+00  5.0767112107532819e+00  8.2180414160301556e+00  2.4245450297432405e+00  5.5268349343015108e+00  5.0388122505750905e+00  3.1214121098396164e+00  6.4369285003699988e+00  3.0395927596626473e+00  1.2933044187085476e+00  8.1420578235384866e+00  2.4848440694822358e+00  8.4562054498681363e+00  5.9108011967977114e-01  9.3425958739781318e+00  2.2951461835503750e-01  1.7059734829646693e+00  7.7004533362867011e+00  7.2524939767039598e+00  7.1699099445768795e+00  3.5556093528286019e+00  7.3003004617836054e-01  2.2378391651707419e-01  8.6057946359598780e+00  9.5391447545663226e+00  2.5032691149874555e+00  5.4777166043430485e+00  6.7789051049409661e+00  6.2152972885491966e+00  9.5388839892868411e+00  8.6806625803254320e+00  5.3186600556295067e+00  4.4846051064709505e+00  1.9959790957899775e+00  8.3790028617541024e-01  7.1406577737434906e-01  1.1573973210432829e+00  9.5385279181143616e+00  2.1446681839572063e-01  2.1471344059394815e-01  9.5391546512921472e+00  9.5368531753492345e+00  4.1496059882864484e+00  2.7577416440978880e-01  9.5363689758830876e+00  7.9750022996762633e+00  7.1296500384039865e+00  4.4044849722360828e+00  4.7872623070513640e+00  7.8239318830457396e+00  5.9019493045019189e+00  5.6404761032925901e+00  3.8562920583627194e+00  4.2605911306907522e+00  2.2376635202559081e-01  1.0844712617907655e+00  7.9298796825470301e+00  2.7481085743950247e+00  3.1609043966467358e+00  1.8562866528057558e+00  3.8229468785370537e+00  4.7894624705256517e+00  1.7347575143792688e+00  2.5866953968677202e+00  2.2360380697013529e+00  2.8567008364059197e+00  7.1013574119295964e+00  6.2368086468017028e+00  8.7474580425274109e+00  3.8753207746823968e+00  1.7127559477980987e+00  6.6036528908505598e-01  2.5508136288886618e+00  8.1316641665728273e+00  8.8492193419259557e+00  2.8540870299236976e-01  2.5340917867250190e-01  7.0214282697943080e+00  7.8845378250671576e+00  2.8733821862427846e+00  7.8000721636762247e+00  3.2710723008684890e+00  5.1984890332179114e+00  6.8851162691478835e+00  2.0201043665864984e+00  1.5715031769889913e+00  3.6300257284940787e+00  3.7967176114618293e+00  3.5457684710017232e+00  4.5518759536507760e+00  1.5635797771249846e+00  1.2402419479718820e+00  1.3660840776744165e+00  1.2613842798953923e+00  1.5941987136203699e+00  1.5298681038053252e+00  3.4974631741311577e+00  3.8330040002539589e+00  3.0062752065027500e+00  6.6133996928652756e+00  5.1535943040586654e+00  1.1618654614951975e+00  1.5725813102111319e+00  8.2328302681457206e+00  3.2253469467488545e+00  6.0669447082894932e+00  6.8731229151632371e+00  6.2022839806834833e+00  1.9959506525478539e+00  4.9332937386217468e+00  2.5371607049141587e+00  2.5562333627123155e+00  4.6268316163048109e+00  3.8870242028685955e+00  4.4393579247032422e+00  4.8862220678918922e+00  3.4778190573778951e+00  2.2489875416566854e+00  2.1157724561796676e+00  8.7359927325930951e+00  9.5548622405908468e+00  5.5029224227226949e+00  3.0148673936274428e-01  3.1661340162345124e+00  6.3122213000249818e+00  2.4413934315591024e+00  8.7803998978946041e+00  2.0323436931291550e+00  5.4068556366698006e+00  2.8427272991010475e+00  1.9581612209304997e+00  9.4997780728300629e+00  3.5327832230230821e-01  4.5836075660224962e+00  7.4051123077510397e+00  9.1436298769050950e+00  2.1394810162228678e-01  8.5082547119248382e+00  3.0029379958974669e+00  2.4025972311634014e+00  1.1085503888666017e+00  2.6974325903858065e-01  5.2081078953150639e+00  7.1499661115344582e-01  1.1628846612301644e+00  1.1862021583495954e+00  4.0130029899527297e+00  4.0213336663065551e+00  7.8234074332449808e+00  7.6550013662481913e+00  5.1272008618610325e+00  1.0000000000000000e+01  2.0468081862066487e+00  6.5428168960542976e-01  6.9146981779682637e+00  2.6017690836664271e+00  2.2351466620510596e+00  3.5225427708744825e+00  1.2787526825605031e+00  1.0812399773402566e+00  7.0875601125529188e+00  8.0469431460280916e+00  1.6165426617242795e+00  1.5483653469586112e+00  5.4774702125405925e+00  2.1773311953867158e+00  4.6629420724760200e+00  2.0623979244268789e+00  3.1908357423890892e+00  2.9196607641822747e+00  3.4918120302462743e+00  1.0000000000000000e+01  9.0266509412873042e+00  6.8021857867532125e+00  6.3640525046701084e+00  5.0081875847393109e-01  7.8447871068990294e+00  7.1637505020649819e+00  5.3677718151705793e+00  3.7206204711608604e+00  1.0811342207296795e+00  9.5313456256618831e+00  3.0773102237860059e+00  2.7697867460165124e+00  9.7492718723744676e-01  6.3822242966631448e-01  6.2645711806862279e+00  7.3596074426232194e+00  2.9477769496750348e+00  4.0154883139287740e+00  4.6621121713940648e+00  4.7237556989918152e+00  4.4294974329290016e+00  1.2826846508000318e+00  7.1355088742556125e+00  0.0000000000000000e+00  1.1921284024184520e+00  1.4518491023623807e+00  3.3564820898613261e+00  2.0455874739483049e+00  2.4189459023382613e+00  8.8601504386365644e+00  6.0528311233512468e+00  6.3504062706047497e+00  3.4665106628172451e+00  2.4220196681668230e-01  7.7905412785779671e+00  3.2684234328848598e+00  3.7391864522771163e+00  3.7639251602656358e+00  1.0000000000000000e+01  7.5809638793355090e+00  7.0498337249415250e+00  7.6914268871062950e+00  2.3180534437856184e+00  9.5579024130187697e+00  8.8987050391146845e+00  9.4852152398451288e+00  0.0000000000000000e+00  9.5578371161994511e+00  3.3017900832807245e+00  8.2839696154169384e-01  1.0795826786955118e+00  5.5125529891370526e+00  5.5365043911265870e+00  5.8149160518997363e+00  5.7148808431376121e+00  9.5102278194262944e+00  8.7039634905529617e+00  4.7238382005864015e+00  4.2892159077369607e+00  5.3485211041379421e-01  2.8447273848752981e+00  4.2084865907424893e+00  2.6768428897768701e+00  1.8286613559080545e+00  7.7852140046903218e-01  1.1348880219316819e+00  7.5265092387946508e-01  2.4528556591974677e+00  7.8366884856494785e+00  1.3440731782718260e+00  6.0500775481715232e+00  0.0000000000000000e+00  1.6003869665754582e+00  9.5231948477027295e+00  4.2217756451954713e-01  5.7575481356029838e+00  4.1033443606759343e+00  2.2671230233481237e+00  4.9228705419441825e+00  4.1219574620930519e+00  3.5676836734626516e+00  3.8458856120542184e+00  6.3026116079487773e+00  9.5370070437651453e+00  6.7861304730237737e-01  8.6246356975182898e+00  4.1862356579774307e+00  9.5480346240077481e+00  4.5959400847729368e+00  5.6760657314058891e+00  3.8701286971824622e+00  1.5039069475977882e+00  3.4275502832218470e+00  1.0000000000000000e+01  4.2216241686637854e+00  7.6515803118549486e-01  5.4103182116850332e+00  9.6158798024608516e-01  3.2695303214154987e+00  8.6126362625689463e+00  6.6037931930001248e+00  8.5374569386767529e-01  7.8166421275759002e-01  2.3921461680729799e+00  6.3971418939224078e-01  1.4940063324528108e+00  1.7713016547735310e+00  1.6217010120733371e+00  1.9567960145538261e+00  1.8761029172247157e+00  9.5368967288471946e+00  1.0000000000000000e+01  9.5012425618278673e-01  4.2333373809290942e+00  7.4160404720677695e+00  6.4803821210762411e+00  6.1222175012900939e+00  6.8553963477423494e+00  8.9350256430458721e+00  3.0022057755253084e+00  8.2949132754281010e+00  2.7834209469696152e+00  2.9936733918248537e+00  5.1374861091003092e+00  8.7773505370105056e+00  4.5327633807802101e+00  2.2770241927745229e+00  7.6474757064613188e+00  3.2559743970975092e+00  4.6950308859876007e+00  7.6983728031464249e+00  7.5183505727080968e+00  4.1489770099599275e+00  0.0000000000000000e+00  8.8022592909110760e+00  0.0000000000000000e+00  7.3868005448552401e+00  3.5568716093289030e+00  2.0010390525816582e+00  2.0177802934193396e+00  2.0506742012914390e+00  5.7180376948861191e+00  3.2147751961980737e+00  6.9986663468798236e+00  8.9993953243669556e-01  2.9060400188421629e+00  7.9906267593579772e+00  6.7063578119756864e+00  9.3441496379908418e-01  3.2260706553222289e+00  3.2703761334325216e+00  4.0992101978855384e+00  8.4579479361562271e+00  7.0899985060981301e+00  5.8425307998499356e+00  5.2325520736739080e+00  7.9090154531244412e+00  9.0988666221352972e+00  9.5573222446488799e+00  6.5967359821915252e+00  5.1477648772270190e-01  3.8471708645460110e+00  2.3508984112557388e-01  4.4611537875279925e+00  9.5574477376783999e+00  1.0000000000000000e+01  1.0000000000000000e+01  8.6807040674570874e+00  2.4847370901310253e+00  7.8232571385581400e+00  0.0000000000000000e+00  2.1396861060170083e-01  4.1492161486734762e+00  0.0000000000000000e+00  1.0000000000000000e+01  1.9957659708953810e+00  8.6805462874916675e+00  1.0000000000000000e+01  6.2143261023969103e+00  5.4769287888866458e+00  1.0000000000000000e+01  1.0000000000000000e+01  1.0000000000000000e+01  0.0000000000000000e+00  0.0000000000000000e+00  0.0000000000000000e+00  3.5555600488546850e+00  0.0000000000000000e+00  2.4844255693352091e+00  6.9986922237067244e+00  0.0000000000000000e+00  6.4413620246094250e-01  6.4410280723176194e-01  0.0000000000000000e+00  1.5300033353385896e+00  4.7887536881410337e+00  0.0000000000000000e+00  6.2148177767719233e+00  1.0000000000000000e+01  1.0000000000000000e+01  9.5578680300543404e+00  0.0000000000000000e+00  4.7886394162461583e+00  0.0000000000000000e+00  3.5559270792611470e+00  1.0000000000000000e+01  1.0000000000000000e+01  1.6414186840514369e+00  6.7119527734069484e+00  1.8588092821117022e-01  5.0667589107528093e+00  4.6819670198736603e+00  7.2582450191076102e+00  2.8671963569084751e+00  1.5387772589345197e+00  1.7155798709885124e+00  1.3711418939061537e+00  8.6069360313826557e+00  1.1921355521572323e+00  2.0173867930321357e-01  1.0124211639752188e+00  8.0339272802120743e+00  4.3473561699236191e-01  5.4205751077513276e-01  2.1042966976526459e-01  4.3775832730376824e-01  3.2113733292562446e-01  4.8227836941223118e-01  4.4839276565890512e-01  8.6497818301503084e+00  8.1781987566222032e+00  1.6344362049249084e+00  4.4953595748725457e+00  9.5118129540999270e+00  6.3301635794979128e-01  5.3260689674581485e+00  3.1491478959232433e+00  9.5933140496591340e-01  2.8932439215552708e+00  2.0649021109992889e+00  2.6139523993917346e+00  6.8156213291145473e+00  8.8667534931920677e+00  1.4920432854518284e+00  8.3947701343835117e+00  8.0107511889408674e+00  5.7081933326996142e+00  2.5045963734447168e+00  3.6694587625813728e+00  6.0017240732618902e+00  1.8649955913815826e+00  4.2427212425162644e+00  8.6087172345239509e+00  2.0485776597115066e+00  5.1591972029279418e+00  7.5945388632760160e+00  6.9194230715789065e+00  7.5184719433757481e+00  2.0620071436892015e-01  1.8466171791748387e+00  1.6243410020435503e+00  1.4165617902010186e+00  9.1678158302524504e-01  1.1651890935443137e+00  3.0594829180407634e+00  4.0734749193717334e+00  3.7283364822792646e+00  6.9664056569849855e+00  9.1219131216533995e+00  8.8101648982379643e+00  6.5554836383898865e+00  6.3413600580373126e+00  2.9289433282249515e+00  4.1022663252240452e+00  8.3811335876300852e-01  9.6911527464426328e-01  1.2921924082929930e+00  1.1565935777289622e+00  1.3982451313073514e+00  1.3249795819005799e+00  1.2062734463413907e+00  5.2864078690266725e+00  5.1994425568683500e+00  2.8392974433396065e+00  4.7576578368042091e+00  8.5607242473014189e+00  2.4341375228836259e+00  2.0861691394008650e+00  9.6063211453599617e+00  8.0282663162947756e+00  8.2742616040567345e+00  4.2807381632284436e+00  6.2829298065158456e-01  5.3640377384215663e+00  3.7044858727874552e+00  2.3961535994689864e+00  5.9772182628062893e+00  7.0312196552956889e+00  1.2275337584585075e+00  7.8016147131678233e+00  7.4731336439902867e+00  6.9544835188629230e+00  9.5409758469764778e+00  8.2594681067142872e+00  8.4108111224627553e+00  8.8270824932215550e+00  7.8756024722444966e+00  2.2247238491884032e+00  7.8652417400844787e-01  1.1542381551420051e+00  9.5555037419695488e+00  2.2988771678617197e+00  1.1635080148434334e+00  5.4023782747516789e+00  6.0375089547264134e+00  3.3560922788230059e+00  2.6540982612880342e+00  3.6300897673430037e+00  1.5727041514881488e+00  1.6697308093860572e+00  1.5163784984016775e+00  1.7066433583588089e-01  2.1740245509448051e+00  7.5067710902834266e+00  7.0261146827198111e+00  9.9251292071577768e-01  8.9148897917473153e+00  7.0907399713643224e+00  7.8968429302739267e+00  6.4234428032422670e+00  5.1413468087477954e+00  1.1903100575741581e+00  1.0157835129326078e+00  8.0218215477174348e-01  8.6286308347624519e-01  4.7901186772433393e+00  6.89119