<?xml version="1.0"?>
<VTKFile type="UnstructuredGrid"  version="0.1"  >
<UnstructuredGrid>
<Piece  NumberOfPoints="2513" NumberOfCells="4852">
<Points>
<DataArray  type="Float64"  NumberOfComponents="3"  format="ascii">-1 1 0  -1 -1 0  1 -1 0  1 1 0  0 -1 0  1 0 0  0 1 0  -1 0 0  0 0 0  -1 -0.5 0  -0.5 -1 0  -0.5 1 0  -1 0.5 0  1 -0.5 0  0.5 -1 0  1 0.5 0  0.5 1 0  0.4166666666666666 -0.4166666666666667 0  -0.4166666666666667 0.4166666666666667 0  -0.25 -0.5 0  0.5 0.25 0  -0.4861111111111112 -0.06944444444444445 0  0.0732758620689655 0.507183908045977 0  -0.625 -0.625 0  0.625 0.625 0  0.7380952380952381 -0.25 0  -0.7099116161616161 0.2105429292929293 0  -0.25 0.7380952380952381 0  0.105392156862745 -0.6348039215686275 0  0.6770833333333334 -0.6770833333333333 0  -0.6770833333333334 0.6770833333333334 0  0.3472222222222222 -0.06944444444444446 0  -0.7264957264957265 -0.3044871794871795 0  0.3141940982507127 0.7297313660835709 0  0.02049587951122483 -0.3227479397556124 0  -0.2690972222222223 0.1475694444444444 0  0.3859500089908372 -0.7274430156831472 0  -0.2228477945123298 -0.1761765495248019 0  0.2182539682539683 0.1884920634920635 0  0.75 0.375 0  -0.145442219440968 -0.7602211097204841 0  0.7088913690476191 0.0427827380952381 0  -0.75 -1 0  -1 -0.75 0  1 0.75 0  0.75 1 0  -0.7439982703698937 -0.04614153195464455 0  -0.4609235096577606 -0.3356498099556895 0  0.4063134471431929 0.4895621842856023 0  0.25 -1 0  -0.25 -1 0  -0.75 1 0  0.75 -1 0  -1 -0.25 0  -1 0.25 0  1 -0.25 0  -0.25 1 0  1 -0.75 0  -1 0.75 0  0.25 1 0  1 0.25 0  -0.4041423272138783 -0.7597141090712928 0  0.06500839607911253 0.7578103030529481 0  -0.1572801182352047 0.3838997021864289 0  -0.6528005242053915 0.4409494757946086 0  -0.4930160984848485 0.1544744318181818 0  -0.4732142857142858 0.7752976190476191 0  0.6398809523809523 -0.4538690476190476 0  0.5166054117396399 -0.2161233620965164 0  -0.002273787244753427 0.2232363985975174 0  0.1500564496765022 -0.1524955293952667 0  0.2016720420046758 -0.4410343282803009 0  -0.08495178036419618 0.6274139771124571 0  -0.8367311471133162 0.3642591720794645 0  -0.8333333333333334 -0.625 0  -0.594323836800685 -0.8231079456002283 0  -0.4466957714776065 -0.5349126855671806 0  0.8125 0.5625 0  0.78125 0.78125 0  0.5091392650016769 0.7947130883338923 0  0.125 -0.8382681931833136 0  -0.8184523809523809 -0.8184523809523809 0  -0.07781530426104531 -0.5819319697006881 0  0.5085055196703295 0.04967610411902112 0  0.2918471072074933 -0.276017202318847 0  0.5120763537765269 -0.5898771553229597 0  0.625 -0.8585349462365591 0  0.8158532234335381 -0.8158532234335381 0  -0.5198088446315396 0.5739411553684605 0  -0.8585349462365591 0.625 0  -0.8150493805516597 0.8156205699829586 0  0.8585349462365591 -0.625 0  -0.2688268348649726 0.5439331383603209 0  0.8242100426758139 -0.4436043596336612 0  0.5833756314287952 0.4479378157143976 0  0.8690476190476191 -0.125 0  -0.125 0.8690476190476191 0  -0.8692745600729823 0.125 0  0.8696725120759167 0.125 0  -0.625 0.8711516477451908 0  0.2339522463269718 0.3879558377955778 0  0.2453709502295031 0.5655822922838026 0  0.1730610651637797 0.02021709580868947 0  0.3245402594056757 -0.5644672020485209 0  -0.7291666666666666 -0.4816595441595442 0  -1 -0.375 0  -0.5811140848639904 -0.2127276307675001 0  0.673332592838314 0.2158348143233718 0  0.375 1 0  -0.5714768890989919 0.2985103444040069 0  -1 -0.125 0  -0.8453692574786325 -0.1875 0  -0.3144549134065865 -0.02408675326008025 0  -0.2898414972096258 -0.3336092734780093 0  -0.1075052092206287 -0.4224330421314983 0  -0.05043970703604117 -0.1652278959397459 0  0.6459672950297897 -0.1113415301525317 0  0.4645210271029513 0.6398480556579343 0  0.3512863754411909 0.0937979496253573 0  -0.6063160985568274 0.03891469652249891 0  -0.3428819444444445 0.8690476190476191 0  0.625 1 0  -0.1602164796159982 0.02697860906625157 0  0.04648110064133829 -0.4808416424239687 0  1 0.875 0  -0.3836102479201657 0.6484936449177356 0  -0.3776011723096096 0.263078478984336 0  -0.6024978259969829 -0.3949628096211138 0  0.125 1 0  0.2010781308272777 0.8456221018461906 0  0.2822509696388829 -0.845902544691141 0  -0.3285533674953515 -0.6289773550938936 0  0.3461306793221754 0.278777492464833 0  0.4737475672408696 -0.8508448959534423 0  0.2384632828836344 -0.7029523187242811 0  -0.004777287059791593 0.3759269695907358 0  -0.8499735021850066 -0.3912320205328522 0  0.1222536293721587 0.2963971539625205 0  -0.3769456520999688 -0.203572526805711 0  -0.2749617205755651 -0.8464290792698902 0  0.004805888512766143 -0.747174355248311 0  -0.125 -1 0  -0.06001061822252458 -0.8724007765244854 0  0.875 0.4375 0  0.854421179608893 0.271342359217786 0  0.875 1 0  -0.1499861095763589 0.2358309656934888 0  0.3381943639137225 0.8663061796405532 0  -0.7853090110442228 0.4998412775277108 0  0.7398165998560814 -0.5535192694951373 0  0.1580042122341573 -0.3100246140259917 0  -0.7291666666666667 -0.7142857142857142 0  -0.375 -1 0  0.6483368386154684 0.8514905990110488 0  -0.1295370103291928 -0.2826118305021242 0  0.07458201853700455 0.1123894386563915 0  0.6146465857036327 -0.3161203659316075 0  0.5551898493894731 -0.740296118159085 0  0.375 -1 0  0.482702798370208 -0.084133350091034 0  0.87890625 0.68359375 0  -0.05917195534525846 0.4971092425697621 0  0.1260710309213975 0.6343750312956699 0  0.8690476190476191 -0.3077066815262848 0  -0.2912010232560567 0.3668168386732139 0  -0.875 1 0  -1 0.875 0  1 -0.875 0  0.875 -1 0  -0.8689564281364567 -0.006189266075306407 0  -0.7449425635110547 0.08458938160051771 0  -0.7150266761936593 -0.1739444581417552 0  -0.5260034831318311 -0.711099823962112 0  -0.4724626808827322 -0.871722230709409 0  0.4734436795977052 0.377714794132168 0  -0.875 -1 0  -1 -0.875 0  0.6927189078571988 0.5156567235715964 0  -0.3742497615796874 -0.4296005251260107 0  -0.1969436423297711 -0.6387157229772615 0  -0.6179496409766825 -0.08933356056510935 0  -0.424405057115988 0.04452428810878029 0  -0.08479048335844169 0.1279607007132633 0  0.003830300099055113 0.8712085230656206 0  0.8748778838820267 -1.379218479898026e-05 0  -0.375 1 0  -0.625 1 0  1 0.125 0  -0.125 1 0  1 -0.375 0  1 -0.125 0  1 -0.625 0  0.625 -1 0  0.125 -1 0  -0.625 -1 0  -1 -0.625 0  -1 0.125 0  -1 0.375 0  -1 0.625 0  1 0.375 0  1 0.625 0  0.6325660748712082 0.3335187599557389 0  -0.06420945895056573 0.7549874027425891 0  -0.8769015540914771 0.2478802253893416 0  0.871875 0.871875 0  -0.6868091492840067 0.3270978624973681 0  -0.5363597469565949 0.412994850055505 0  -0.6803734992638302 0.5574295000651103 0  -0.7076253581162534 -0.8803439094224437 0  -0.8778089002295137 -0.5106896447504627 0  -0.3860184984222981 0.530566778071246 0  0.6109900617121508 0.1128453077697081 0  0.3896945134930274 -0.1915382873255086 0  0.7605656944697778 -0.06822134873122943 0  0.3576151269893478 0.5948388411612135 0  -0.5689902680792265 -0.5143596830118065 0  0.6262446286847614 -0.5735657901943212 0  0.2030558252325225 -0.5625263842513452 0  0.6123273142928579 0.7407533260723429 0  0.4016460890123554 -0.3042863223111857 0  -0.59039693199147 0.7578418819188018 0  0.7276932493917544 -0.3705808024528924 0  0.5222536818742854 -0.4713886230400014 0  -0.5101986527137737 0.8848365765607674 0  0.510560172809238 0.5356013299918891 0  -0.3603569195756083 0.75823710606415 0  0.1967279277813232 0.728226870058472 0  -0.6086880986371127 0.1545624071548516 0  -0.38105366729386 0.1511189987807864 0  -0.2944659463671584 -0.7359061804869591 0  0.5060729154966499 -0.3475227845833823 0  -0.09281616240412746 -0.06197858250969457 0  0.7649739583333334 0.6673177083333334 0  0.7628906249999999 0.890234375 0  -0.2666864184909611 0.2585504071132311 0  0.3635064892129658 0.3878003602709461 0  -0.2339409722222222 0.8901937905844155 0  -0.1718792125974916 -0.8957733325456778 0  0.1001768566329531 0.4023510017391879 0  0.3120260172693757 -0.4540546875576884 0  0.7804062804433681 0.1896628610854537 0  0.4087715451998049 0.187961780041608 0  -0.1584963477271457 0.5451611892421655 0  -0.8926817849258324 0.463022006336401 0  0.2338091473445219 -0.07576267331277289 0  0.08171112182813692 -0.2349087687359925 0  0.04635385178956847 -0.1044635073718474 0  -0.4377391632114205 -0.6448874471423088 0  -0.1907678351227189 0.6480215912813945 0  0.300605946475244 0.4741444604171038 0  -0.2145033720757486 -0.06751709909419711 0  0.6069191921170397 -0.005492331448357812 0  0.0214718770761248 0.6032397936031719 0  0.5476675683364878 0.8992752415326501 0  0.4387475014316537 0.9093708953002239 0  -0.4932997685306436 -0.4381009159993523 0  0.2515197695339056 -0.1791673369138964 0  -0.7291666666666667 -0.6088789682539681 0  -0.9166666666666667 -0.6875 0  0.620579540363709 -0.2122431523583302 0  -0.484950136419973 0.6719440339397442 0  0.2857044415400258 0.0137589173127316 0  -0.8945708364098356 -0.288306105327986 0  0.4043102720140535 0.7842914560451557 0  0.04123256238752064 -0.9026968245801402 0  0.2003676884403109 -0.9091888601740487 0  0.1068775558538842 -0.7373377130403223 0  -0.4804566783514427 -0.1763307203045643 0  0.108286342087769 -0.3993789328997278 0  -0.191883080105361 -0.3640821726430649 0  -0.07025064492006244 0.2984876656890053 0  -0.7039324641409584 0.788312126296613 0  -0.7311286585775438 0.8932502354831682 0  0.5171409396884947 0.1503852691889257 0  0.4229392823658633 -0.003216522184234835 0  -0.5621736087218259 -0.919558629836806 0  -0.626474064879544 -0.7266572613636506 0  0.2446828746617422 0.2867616783302419 0  0.1759429608742923 0.4776611759306416 0  -0.3468240303741654 -0.5260416435617549 0  -0.7465808808425306 0.4069574477998361 0  -0.7819962170660292 0.2802441065650652 0  -0.3742623214119594 -0.8547800509641984 0  0.1014498009713561 0.8506721983266377 0  0.4285217620918213 -0.5230190595570253 0  0.4091738370487775 -0.6256346204225141 0  0.78125 0.46875 0  0.90625 0.53125 0  -0.4791801348852565 0.2553992655702126 0  0.7843318610782772 -0.7086046956885941 0  0.8909728264971901 -0.7355183796514634 0  0.7041908166528879 -0.7830649143180282 0  0.7311821352
[...]
<PointData  Scalars="velocity-2"> 
<DataArray  type="Float64"  Name="velocity-2"  format="ascii">0.0000000000000000e+00  0.0000000000000000e+00  1.0000000000000000e+01  1.0000000000000000e+01  5.0273231948868640e+00  1.0000000000000000e+01  5.0273168730413014e+00  0.0000000000000000e+00  5.0273029648766201e+00  0.0000000000000000e+00  2.5174021821032171e+00  2.5174143366077617e+00  0.0000000000000000e+00  1.0000000000000000e+01  7.5212318553774615e+00  1.0000000000000000e+01  7.5212212737820314e+00  7.1068404184008074e+00  2.9364974598910214e+00  3.7738872186879009e+00  7.5212158593047969e+00  2.5872613809629517e+00  5.3939449200967378e+00  1.8884236517554895e+00  8.1419397542168550e+00  8.7027943095925675e+00  1.4609468391290275e+00  3.7738917924869155e+00  5.5545246157795747e+00  8.4002976712256086e+00  1.6262365157437522e+00  6.7611585256839231e+00  1.3774676478313586e+00  6.5966087982132295e+00  5.1299117323063550e+00  3.6780133500102683e+00  6.9539931564713369e+00  3.9101913096619714e+00  6.1182033612087769e+00  8.7618022790391521e+00  4.2985365216931459e+00  8.5580199632504179e+00  1.2591033290459093e+00  0.0000000000000000e+00  1.0000000000000000e+01  8.7618020764537956e+00  1.2893230236121680e+00  2.7139649100046284e+00  7.0553085631224741e+00  6.2765991237338152e+00  3.7739022331358574e+00  1.2590957564612864e+00  8.7618088461460193e+00  0.0000000000000000e+00  0.0000000000000000e+00  1.0000000000000000e+01  3.7738900894446856e+00  1.0000000000000000e+01  0.0000000000000000e+00  6.2765957523104525e+00  1.0000000000000000e+01  2.9994650522276278e+00  5.3526119330918300e+00  4.2391875141067255e+00  1.7484722821706413e+00  2.5525335489881011e+00  2.6521285258791942e+00  8.2157735386052479e+00  7.6037378531066464e+00  5.0159329053980679e+00  5.7777128157987097e+00  6.0354446147088447e+00  4.6018046240149673e+00  8.2233873770513044e-01  8.3945784189643724e-01  2.0428127245695138e+00  2.7855123075308077e+00  9.0714868328537186e+00  8.9166565838072760e+00  7.5666370892041543e+00  5.6525326269859608e+00  9.1439803773863626e-01  4.6375830098514932e+00  7.5634984444745204e+00  6.4852379259458113e+00  7.5812358654936087e+00  8.1419255352576503e+00  9.0880995812924557e+00  2.4177572769372091e+00  7.1252530247290558e-01  9.3152999877860798e-01  9.2995107357893172e+00  3.6793768045937467e+00  9.1294957905858034e+00  7.9353414863324385e+00  9.3515752580053118e+00  4.4010524415416556e+00  6.5843569190108597e-01  9.3546713455751664e+00  1.8884062467504270e+00  6.1965249978675043e+00  6.2534927048827749e+00  5.8925924978024247e+00  6.6481777707756748e+00  1.3640032207534407e+00  0.0000000000000000e+00  2.1093012877163511e+00  8.3817007402093875e+00  6.8994729638262928e+00  2.1577758870875332e+00  0.0000000000000000e+00  7.7883594009173884e-01  3.4501744193415194e+00  3.5738535606730948e+00  4.4887941656356549e+00  4.7747389395277073e+00  8.2459499917956460e+00  7.3448636008154047e+00  6.7813876572967589e+00  1.9824601455247124e+00  3.3073583732745790e+00  8.1419367417998849e+00  4.2244622486538796e+00  5.2599187402887395e+00  1.0000000000000000e+01  3.1026751396757448e+00  3.1328698008316755e+00  2.0016687102156872e+00  5.6525444779422589e+00  6.0324806972763669e+00  6.4374087237313677e+00  3.3793699949076275e+00  6.7557224693757965e+00  7.3907269182128399e+00  6.2190334064272328e+00  5.0034108867497338e+00  7.5564463469750154e-01  5.6387942481124904e+00  3.1361684917972794e+00  3.6485447116501626e+00  5.0513920394504552e+00  4.4010587374915158e+00  4.7267699460506485e+00  9.3810592333078500e+00  9.2791364434819297e+00  9.3810553346607168e+00  4.2757633775328063e+00  6.7161861195331527e+00  1.0813146857756706e+00  8.7113204052770712e+00  5.8174018700489132e+00  1.3640149601335259e+00  3.1459644889174139e+00  8.2577132035257446e+00  4.3783146918385523e+00  5.4004743949905976e+00  8.0905707586511699e+00  7.7954013159410191e+00  6.8994890315660093e+00  7.4352480113260810e+00  9.4004024624631430e+00  4.7309767056773220e+00  5.6578847208221177e+00  9.3515822385736858e+00  3.5670040760782902e+00  6.2960040531035733e-01  0.0000000000000000e+00  1.0000000000000000e+01  9.3810571944899213e+00  6.6003741320986198e-01  1.2845613817834165e+00  1.4352030651022942e+00  2.3865953165569280e+00  2.6559091987060253e+00  7.3892165035136328e+00  6.2960185403063351e-01  0.0000000000000000e+00  8.4778347394527405e+00  3.1497155743050640e+00  4.0402120100419987e+00  1.9239010868101363e+00  2.8976004772713582e+00  4.6026215772268833e+00  5.0464995497472103e+00  9.3804548995032118e+00  3.1459609856980215e+00  1.8884058322602877e+00  1.0000000000000000e+01  4.4010586239248797e+00  1.0000000000000000e+01  1.0000000000000000e+01  1.0000000000000000e+01  8.1419320314311960e+00  5.6525473515504254e+00  1.8884191567937914e+00  0.0000000000000000e+00  0.0000000000000000e+00  0.0000000000000000e+00  0.0000000000000000e+00  1.0000000000000000e+01  1.0000000000000000e+01  8.1794758066715509e+00  4.7057523040746787e+00  6.2001689456083542e-01  9.3655817161584558e+00  1.5772706976084403e+00  2.3344980427728812e+00  1.6096708919149842e+00  1.4724720831987392e+00  6.1545300967043282e-01  3.0905814287946916e+00  8.0724054690410831e+00  6.9726427076148800e+00  8.8141596405675084e+00  6.8128955254879937e+00  2.1703064467281226e+00  8.1481076576379525e+00  6.0423567653801635e+00  8.0790344090759572e+00  7.0321101861331226e+00  2.0625721714956349e+00  8.6512340610965062e+00  7.6317816346704905e+00  2.4661138490764514e+00  7.5736897440410997e+00  3.2195459545957612e+00  6.0107565777237308e+00  1.9705200238342908e+00  3.1155163706432187e+00  3.5506015764193286e+00  7.5514056273461181e+00  4.5623806636039470e+00  8.8360065807878367e+00  8.8256765085987112e+00  3.6901004769435231e+00  6.8422426168053114e+00  3.8545123055125554e+00  4.1659283394654780e+00  5.5284488256954036e+00  6.5857904581205844e+00  8.9124741866431823e+00  7.0675459060726533e+00  4.2330689043889818e+00  5.4054220427040045e-01  6.1958225174389661e+00  5.4361407797083929e+00  5.2592963982435075e+00  2.8305442991427778e+00  4.0711796507221383e+00  6.5288951366414141e+00  3.9520443894659651e+00  8.0521981493900689e+00  5.1347963658326830e+00  7.7580267904866229e+00  7.2166772391517160e+00  2.5511042883610693e+00  6.2841506687872677e+00  1.3640187961156629e+00  4.1973781300524438e-01  8.1200053135257342e+00  2.5931171046223560e+00  6.4546271282708947e+00  5.3103161430009516e-01  7.0453602239285384e+00  5.2336500441774785e+00  6.0289368032146955e+00  5.5619737174500790e+00  2.6157048199785184e+00  5.5689914513989045e+00  4.0656010665928886e+00  4.6754720869053621e+00  1.4910591793874406e+00  1.3541241644271582e+00  7.6063872076825509e+00  7.1380541460687219e+00  2.2045952187367792e+00  1.8810096243354923e+00  6.2500670020134264e+00  5.9069859624944057e+00  3.2875563353147599e+00  1.2763226785296320e+00  1.0979861158100603e+00  3.1496594265168696e+00  5.5348276413997404e+00  7.1658304520278131e+00  7.0695664358391257e+00  8.9166584304270931e+00  9.5358120226020286e+00  2.6221308737074440e+00  8.9319306373901330e+00  9.4601552792812349e+00  8.5347066437938555e+00  8.6685242969723930e+00  4.1272753092689612e-01  4.6911941437256827e-01  1.0866297749022140e+00  3.8557192719710587e+00  1.0087723595318123e+00  5.1558852354349927e-01  4.5721458311109237e-01  8.7692111686886565e-01  8.6792629244047470e-01  9.4688713764913732e+00  3.5871593330156815e+00  2.1066247733589201e+00  6.9173430824706825e+00  4.6450332046372420e+00  5.1398117120229143e+00  4.1895819079508039e+00  1.1658140396210319e+00  6.5931317699135645e+00  5.6321622839054388e+00  3.0891531861898236e+00  3.3765114717090525e+00  3.9552602798960174e-01  7.8316837489090432e+00  9.4817370492862132e+00  9.5380896568632938e+00  9.3829941760127618e+00  2.3703256611095025e+00  2.6571233680575195e+00  2.0394207932989041e+00  6.2303492859450076e+00  8.7396608317826647e+00  3.3844066562542539e+00  6.6311233940849821e+00  6.1957831356649420e+00  4.2260611593257300e+00  7.3900304255432614e+00  4.1308310940888964e+00  1.8736899538030323e+00  8.6844967592817213e+00  3.4600083534983188e+00  8.9109776359670327e+00  8.6703832021013771e-01  9.5394403017986829e+00  3.3762753921860689e-01  2.4435533277149970e+00  8.3607899948896485e+00  8.0254865123539716e+00  7.9627247512855899e+00  4.7142967918467376e+00  1.0689954690897823e+00  3.2922877540593892e-01  9.0181120937481349e+00  9.6773594423460025e+00  3.4832282943820414e+00  6.5881484656482225e+00  7.6609827252037856e+00  7.2104900918669639e+00  9.6772235694675039e+00  9.0714929386822796e+00  6.4482197622465147e+00  5.6729529356865793e+00  2.8317302690233710e+00  1.2249811282715048e+00  1.0458922494138305e+00  1.6820796377126839e+00  9.6769733282089181e+00  3.1553063565227035e-01  3.1589062398471068e-01  9.6773597120142529e+00  9.6758124859287484e+00  5.3400315653330663e+00  4.0560043117564087e-01  9.6754419087271621e+00  8.5628381574392574e+00  7.9321365944702391e+00  5.5945054948592370e+00  5.9622945584167102e+00  8.4519513283865386e+00  6.9514139854569903e+00  6.7294288217745262e+00  5.0363578041897021e+00  5.4517363943941834e+00  3.2922370245390248e-01  1.5784209935912286e+00  8.5297952753597492e+00  3.7840303227640382e+00  4.2715532931523352e+00  2.6461337947237475e+00  5.0012944150932741e+00  5.9646759063762431e+00  2.4824395527155030e+00  3.5866491933078510e+00  3.1445571404074615e+00  3.9146468318609702e+00  7.9103087620559007e+00  7.2284514319814734e+00  9.1189765074244313e+00  5.0568567434373879e+00  2.4526926501188404e+00  9.6792480512411216e-01  3.5420663188355674e+00  8.6768517110608983e+00  9.1912660551122176e+00  4.1973844759180234e-01  3.7275067773187998e-01  7.8490912466075322e+00  8.4965905148276679e+00  3.9345010641143108e+00  8.4343347267426800e+00  4.3969545108669186e+00  6.3408680123260437e+00  7.7435864791738362e+00  2.8635486205314096e+00  2.2598756583487023e+00  4.7948786083163384e+00  4.9738548922197774e+00  4.7032522050138628e+00  5.7378744491426339e+00  2.2491503756968765e+00  1.7989196539245369e+00  1.9753983957347137e+00  1.8286857440327866e+00  2.2911444755631458e+00  2.2029598183987376e+00  4.6503078198794263e+00  5.0123794760766618e+00  4.0918288019742146e+00  7.5306471992705957e+00  6.3002460116673973e+00  1.6882500048669893e+00  2.2613647968973440e+00  8.7501481023148546e+00  4.3452062572912160e+00  7.0890162618387542e+00  7.7342903534164718e+00  7.2001313869442249e+00  2.8317547805016687e+00  6.0987963988507277e+00  3.5253599906973738e+00  3.5486140135965507e+00  5.8101858975434899e+00  5.0689290029776615e+00  5.6287911264690926e+00  6.0552430007596536e+00  4.6285177955797687e+00  3.1610245561143340e+00  2.9888705369818198e+00  9.1108126167025407e+00  9.6883971515205314e+00  6.6101680951819963e+00  4.4334426738666521e-01  4.2774156004371298e+00  7.2895804576065437e+00  3.4055651984739184e+00  9.1424241404200046e+00  2.8793864096713340e+00  6.5262044744047030e+00  3.8979993865528693e+00  2.7818235065604635e+00  9.6497855084059889e+00  5.1934608979836361e-01  5.7687282492193024e+00  8.1405756858091962e+00  9.3995247069246499e+00  3.1480451950482036e-01  8.9483064311541067e+00  4.0875848671426747e+00  3.3565641834153954e+00  1.6126004151746338e+00  3.9674903360476160e-01  6.3492503326939973e+00  1.0472319197691069e+00  1.6896516365797771e+00  1.7226362097444026e+00  5.2002333408445773e+00  5.2087235628909729e+00  8.4519669172947101e+00  8.3272980495075739e+00  6.2763751826637826e+00  1.0000000000000000e+01  2.8983739929248444e+00  9.5905936443821160e-01  7.7665006067230413e+00  3.6049588792344531e+00  3.1431679049701384e+00  4.6778236668697701e+00  1.8531037244696937e+00  1.5737752501333051e+00  7.8995823442098994e+00  8.6152363358825870e+00  2.3217521047180787e+00  2.2281419304154837e+00  6.5881810430012768e+00  3.0683685828326808e+00  5.8451060625161055e+00  2.9191501704253144e+00  4.3055470368452244e+00  3.9896721326487694e+00  4.6438496217577523e+00  1.0000000000000000e+01  9.3169021296377537e+00  7.6790398560775621e+00  7.3315625625561154e+00  7.3533866008669591e-01  8.4673275624454156e+00  7.9578527835215169e+00  6.4914558180353561e+00  4.8926152505826224e+00  1.5737854169031174e+00  9.6719669969982860e+00  4.1748914849722389e+00  3.8103884138208306e+00  1.4219319206964107e+00  9.3566592769641821e-01  7.2509458265560838e+00  8.1064277931581632e+00  4.0229504576447050e+00  5.2026948794699681e+00  5.8438837183469268e+00  5.9027739110814030e+00  5.6191330250794964e+00  1.8586825646912648e+00  7.9364002911129488e+00  0.0000000000000000e+00  1.7311012950087310e+00  2.0948543310282326e+00  4.4935486253763584e+00  2.8968419101238712e+00  3.3773318574302875e+00  9.1990188323715021e+00  7.0773012273259486e+00  7.3207272593142214e+00  4.6161359449453103e+00  3.5627114108665731e-01  8.4275241083819523e+00  4.3943083769550721e+00  4.9123678521467831e+00  4.9391058141484381e+00  1.0000000000000000e+01  8.2722509212830602e+00  7.8707130496924869e+00  8.3542324420554923e+00  3.2494411957652520e+00  9.6905495673860464e+00  9.2262858046450464e+00  9.6396085128968991e+00  0.0000000000000000e+00  9.6905497180898585e+00  4.4320637296255398e+00  1.2112494639780607e+00  1.5714381624830978e+00  6.6184270300655994e+00  6.6394310122776297e+00  6.8782036034729499e+00  6.7930265531091729e+00  9.6571303520147165e+00  9.0880156870842388e+00  5.9025515511800259e+00  5.4805806422805672e+00  7.8507054681827071e-01  3.9002353271818078e+00  5.3991569693830748e+00  3.6973029207777848e+00  2.6089848350816340e+00  1.1392107230522681e+00  1.6500052657763105e+00  1.1017416909971354e+00  3.4198159867972948e+00  8.4613217307847215e+00  1.9447538637680593e+00  7.0749796223385362e+00  0.0000000000000000e+00  2.2995844064477873e+00  9.6662592796767868e+00  6.2027132506101612e-01  6.8290992366155994e+00  5.2927495763434091e+00  3.1845087355375177e+00  6.0893839967326855e+00  5.3117215209790922e+00  4.7272261272403284e+00  5.0257284604216004e+00  7.2818830406573580e+00  9.6758819409164989e+00  9.9435869385775877e-01  9.0314740191612124e+00  5.3766542699873572e+00  9.6836280345297130e+00  5.7805197271577269e+00  6.7601070161044330e+00  5.0511715274038975e+00  2.1668731436732402e+00  4.5728919808074817e+00  1.0000000000000000e+01  5.4126052213036555e+00  1.1198146797443864e+00  6.5289949935650533e+00  1.4027516532785367e+00  4.3953712008801737e+00  9.0230324054736233e+00  7.5230680212455407e+00  1.2478761539448506e+00  1.1437913453279840e+00  3.3434113221883268e+00  9.3783631479699314e-01  2.1531485657522667e+00  2.5318845752324615e+00  2.3286565158307320e+00  2.7799142144512250e+00  2.6723409076686058e+00  9.6758129128304979e+00  1.0000000000000000e+01  1.3863905769100058e+00  5.4245644126820496e+00  8.1489181885608204e+00  7.4248306205964747e+00  7.1342108043255568e+00  7.7204716577338601e+00  9.2520961362310263e+00  4.0875856410909668e+00  8.7949882439749825e+00  3.8266293284714337e+00  4.0768766816183239e+00  6.2855270614106340e+00  9.1402368867574850e+00  5.7195402546765024e+00  3.1968438683762552e+00  8.3216428579175332e+00  4.3799641058902621e+00  5.8754414090943250e+00  8.3593018963080432e+00  8.2254330478973010e+00  5.3400514615878416e+00  0.0000000000000000e+00  9.1579349829742860e+00  0.0000000000000000e+00  8.1267651809947967e+00  4.7153483417302615e+00  2.8382448523043999e+00  2.8605060771920341e+00  2.9035380318567530e+00  6.7957706557820829e+00  4.3329064288127519e+00  7.8316960311262136e+00  1.3143970005701942e+00  3.9732584983885921e+00  8.5741326223882552e+00  7.6041907994503601e+00  1.3640022606322149e+00  4.3458400637659302e+00  4.3966561459639966e+00  5.2888668075691001e+00  8.9123794951057480e+00  7.9019295811758381e+00  6.9015364651809481e+00  6.3713205936781572e+00  8.5144791160140336e+00  9.3678303187888563e+00  9.6902455310911897e+00  7.5173190919201662e+00  7.5576358141561839e-01  5.0275936243919110e+00  3.4581217788003732e-01  5.6501560971277165e+00  9.6902745680144573e+00  1.0000000000000000e+01  1.0000000000000000e+01  9.0714803243246802e+00  3.4600080107917841e+00  8.4519634541095989e+00  0.0000000000000000e+00  3.1480624686628617e-01  5.3400602251132625e+00  0.0000000000000000e+00  1.0000000000000000e+01  2.8317487938947066e+00  9.0714841447284655e+00  1.0000000000000000e+01  7.2104881337248576e+00  6.5881803346695298e+00  1.0000000000000000e+01  1.0000000000000000e+01  1.0000000000000000e+01  0.0000000000000000e+00  0.0000000000000000e+00  0.0000000000000000e+00  4.7143120933163347e+00  0.0000000000000000e+00  3.4600058183861395e+00  7.8316930865132770e+00  0.0000000000000000e+00  9.4436624750476728e-01  9.4436972722491053e-01  0.0000000000000000e+00  2.2029648793930381e+00  5.9647032640666922e+00  0.0000000000000000e+00  7.2104878625274056e+00  1.0000000000000000e+01  1.0000000000000000e+01  9.6905487386761084e+00  0.0000000000000000e+00  5.9647005003588385e+00  0.0000000000000000e+00  4.7142937071450737e+00  1.0000000000000000e+01  1.0000000000000000e+01  2.3557765990837813e+00  7.6087277525697328e+00  2.7350591665365176e-01  6.2213838978027107e+00  5.8632203753413092e+00  8.0296265567981440e+00  3.9272952738264881e+00  2.2149234899942623e+00  2.4565234622239092e+00  1.9826090298134609e+00  9.0189376853283445e+00  1.7311162712840480e+00  2.9681770513820877e-01  1.4756777030555994e+00  8.6057162988957128e+00  6.3868100011781881e-01  7.9563198380300382e-01  3.0961042198085853e-01  6.4314569008958378e-01  4.7220742331512761e-01  7.0824449634299125e-01  6.5862990784407804e-01  9.0495001881633339e+00  8.7105860206358869e+00  2.3461433322893859e+00  5.6833434012579591e+00  9.6582703812388573e+00  9.2811075885505678e-01  6.4545450010467995e+00  4.2576938200848673e+00  1.3995979315852958e+00  3.9581669773766510e+00  2.9221657310645472e+00  3.6202795716163738e+00  7.6893257329217146e+00  9.2037043460867576e+00  2.1505051142333067e+00  8.8669668774454546e+00  8.5889422766208661e+00  6.7874744659894510e+00  3.4846159033377346e+00  4.8382112422521306e+00  7.0348628395822610e+00  2.6576628393327089e+00  5.4338288610839962e+00  9.0202167391379948e+00  2.9010189395563337e+00  6.3054638979788162e+00  8.2824257202053513e+00  7.7703603174792661e+00  8.2255605461904366e+00  3.0336794159616942e-01  2.6330795151300950e+00  2.3324232844558130e+00  2.0458912586918738e+00  1.3386374610333498e+00  1.6929455500519632e+00  4.1541350875419862e+00  5.2621272429071855e+00  4.9013357349681019e+00  7.8064269946586293e+00  9.3842463709652542e+00  9.1635709683195046e+00  7.4846457751560473e+00  7.3131067251378346e+00  4.0010067739274060e+00  5.2918358203334854e+00  1.2253450180348289e+00  1.4137336099831026e+00  1.8720297839360702e+00  1.6806764664465397e+00  2.0203919033503421e+00  1.9179863366234002e+00  1.7512659881244366e+00  6.4198158563948251e+00  6.3419906360453533e+00  3.8941169836958434e+00  5.9348889330836148e+00  8.9858412297589414e+00  3.3968624506550333e+00  2.9503722279774802e+00  9.7245261236977516e+00  8.6014947355878171e+00  8.7801752234209847e+00  5.4723083309739042e+00  9.2120140687240015e-01  6.4884690242662595e+00  4.8755315944851807e+00  3.3486907987018406e+00  7.0147727475738906e+00  7.8565020819005795e+00  1.7810449731922011e+00  8.4357799219085923e+00  8.1918038236620543e+00  7.7973864400489949e+00  9.6786792396383738e+00  8.7693735001092961e+00  8.8785056426888005e+00  9.1756669937644091e+00  8.4899484307631035e+00  3.1297608013102067e+00  1.1508663409772730e+00  1.6774669243185902e+00  9.6888818604625104e+00  3.2248773646950561e+00  1.6905736023495295e+00  6.5220110369141988e+00  7.0643624941573826e+00  4.4932709403244520e+00  3.6694717797616159e+00  4.7954597804122940e+00  2.2616084138996650e+00  2.3943369996150050e+00  2.1842595876566158e+00  2.5113497293981957e-01  3.0644182655618817e+00  8.2168826156023940e+00  7.8528102532707891e+00  1.4470586804074721e+00  9.2378099884619882e+00  7.9022297301487683e+00  8.5055773400452299e+00  7.3795530429855862e+00  6.2891050641111867e+00  1.7286163989890899e+00  1.4804259778840425e+00  1.1734087417248806e+00  1.2609417365895934e+00  5.9655432851297565e+00  7.74849