<?xml version="1.0"?>
<VTKFile type="UnstructuredGrid"  version="0.1"  >
<UnstructuredGrid>
<Piece  NumberOfPoints="2513" NumberOfCells="4852">
<Points>
<DataArray  type="Float64"  NumberOfComponents="3"  format="ascii">-1 1 0  -1 -1 0  1 -1 0  1 1 0  0 -1 0  1 0 0  0 1 0  -1 0 0  0 0 0  -1 -0.5 0  -0.5 -1 0  -0.5 1 0  -1 0.5 0  1 -0.5 0  0.5 -1 0  1 0.5 0  0.5 1 0  0.4166666666666666 -0.4166666666666667 0  -0.4166666666666667 0.4166666666666667 0  -0.25 -0.5 0  0.5 0.25 0  -0.4861111111111112 -0.06944444444444445 0  0.0732758620689655 0.507183908045977 0  -0.625 -0.625 0  0.625 0.625 0  0.7380952380952381 -0.25 0  -0.7099116161616161 0.2105429292929293 0  -0.25 0.7380952380952381 0  0.105392156862745 -0.6348039215686275 0  0.6770833333333334 -0.6770833333333333 0  -0.6770833333333334 0.6770833333333334 0  0.3472222222222222 -0.06944444444444446 0  -0.7264957264957265 -0.3044871794871795 0  0.3141940982507127 0.7297313660835709 0  0.02049587951122483 -0.3227479397556124 0  -0.2690972222222223 0.1475694444444444 0  0.3859500089908372 -0.7274430156831472 0  -0.2228477945123298 -0.1761765495248019 0  0.2182539682539683 0.1884920634920635 0  0.75 0.375 0  -0.145442219440968 -0.7602211097204841 0  0.7088913690476191 0.0427827380952381 0  -0.75 -1 0  -1 -0.75 0  1 0.75 0  0.75 1 0  -0.7439982703698937 -0.04614153195464455 0  -0.4609235096577606 -0.3356498099556895 0  0.4063134471431929 0.4895621842856023 0  0.25 -1 0  -0.25 -1 0  -0.75 1 0  0.75 -1 0  -1 -0.25 0  -1 0.25 0  1 -0.25 0  -0.25 1 0  1 -0.75 0  -1 0.75 0  0.25 1 0  1 0.25 0  -0.4041423272138783 -0.7597141090712928 0  0.06500839607911253 0.7578103030529481 0  -0.1572801182352047 0.3838997021864289 0  -0.6528005242053915 0.4409494757946086 0  -0.4930160984848485 0.1544744318181818 0  -0.4732142857142858 0.7752976190476191 0  0.6398809523809523 -0.4538690476190476 0  0.5166054117396399 -0.2161233620965164 0  -0.002273787244753427 0.2232363985975174 0  0.1500564496765022 -0.1524955293952667 0  0.2016720420046758 -0.4410343282803009 0  -0.08495178036419618 0.6274139771124571 0  -0.8367311471133162 0.3642591720794645 0  -0.8333333333333334 -0.625 0  -0.594323836800685 -0.8231079456002283 0  -0.4466957714776065 -0.5349126855671806 0  0.8125 0.5625 0  0.78125 0.78125 0  0.5091392650016769 0.7947130883338923 0  0.125 -0.8382681931833136 0  -0.8184523809523809 -0.8184523809523809 0  -0.07781530426104531 -0.5819319697006881 0  0.5085055196703295 0.04967610411902112 0  0.2918471072074933 -0.276017202318847 0  0.5120763537765269 -0.5898771553229597 0  0.625 -0.8585349462365591 0  0.8158532234335381 -0.8158532234335381 0  -0.5198088446315396 0.5739411553684605 0  -0.8585349462365591 0.625 0  -0.8150493805516597 0.8156205699829586 0  0.8585349462365591 -0.625 0  -0.2688268348649726 0.5439331383603209 0  0.8242100426758139 -0.4436043596336612 0  0.5833756314287952 0.4479378157143976 0  0.8690476190476191 -0.125 0  -0.125 0.8690476190476191 0  -0.8692745600729823 0.125 0  0.8696725120759167 0.125 0  -0.625 0.8711516477451908 0  0.2339522463269718 0.3879558377955778 0  0.2453709502295031 0.5655822922838026 0  0.1730610651637797 0.02021709580868947 0  0.3245402594056757 -0.5644672020485209 0  -0.7291666666666666 -0.4816595441595442 0  -1 -0.375 0  -0.5811140848639904 -0.2127276307675001 0  0.673332592838314 0.2158348143233718 0  0.375 1 0  -0.5714768890989919 0.2985103444040069 0  -1 -0.125 0  -0.8453692574786325 -0.1875 0  -0.3144549134065865 -0.02408675326008025 0  -0.2898414972096258 -0.3336092734780093 0  -0.1075052092206287 -0.4224330421314983 0  -0.05043970703604117 -0.1652278959397459 0  0.6459672950297897 -0.1113415301525317 0  0.4645210271029513 0.6398480556579343 0  0.3512863754411909 0.0937979496253573 0  -0.6063160985568274 0.03891469652249891 0  -0.3428819444444445 0.8690476190476191 0  0.625 1 0  -0.1602164796159982 0.02697860906625157 0  0.04648110064133829 -0.4808416424239687 0  1 0.875 0  -0.3836102479201657 0.6484936449177356 0  -0.3776011723096096 0.263078478984336 0  -0.6024978259969829 -0.3949628096211138 0  0.125 1 0  0.2010781308272777 0.8456221018461906 0  0.2822509696388829 -0.845902544691141 0  -0.3285533674953515 -0.6289773550938936 0  0.3461306793221754 0.278777492464833 0  0.4737475672408696 -0.8508448959534423 0  0.2384632828836344 -0.7029523187242811 0  -0.004777287059791593 0.3759269695907358 0  -0.8499735021850066 -0.3912320205328522 0  0.1222536293721587 0.2963971539625205 0  -0.3769456520999688 -0.203572526805711 0  -0.2749617205755651 -0.8464290792698902 0  0.004805888512766143 -0.747174355248311 0  -0.125 -1 0  -0.06001061822252458 -0.8724007765244854 0  0.875 0.4375 0  0.854421179608893 0.271342359217786 0  0.875 1 0  -0.1499861095763589 0.2358309656934888 0  0.3381943639137225 0.8663061796405532 0  -0.7853090110442228 0.4998412775277108 0  0.7398165998560814 -0.5535192694951373 0  0.1580042122341573 -0.3100246140259917 0  -0.7291666666666667 -0.7142857142857142 0  -0.375 -1 0  0.6483368386154684 0.8514905990110488 0  -0.1295370103291928 -0.2826118305021242 0  0.07458201853700455 0.1123894386563915 0  0.6146465857036327 -0.3161203659316075 0  0.5551898493894731 -0.740296118159085 0  0.375 -1 0  0.482702798370208 -0.084133350091034 0  0.87890625 0.68359375 0  -0.05917195534525846 0.4971092425697621 0  0.1260710309213975 0.6343750312956699 0  0.8690476190476191 -0.3077066815262848 0  -0.2912010232560567 0.3668168386732139 0  -0.875 1 0  -1 0.875 0  1 -0.875 0  0.875 -1 0  -0.8689564281364567 -0.006189266075306407 0  -0.7449425635110547 0.08458938160051771 0  -0.7150266761936593 -0.1739444581417552 0  -0.5260034831318311 -0.711099823962112 0  -0.4724626808827322 -0.871722230709409 0  0.4734436795977052 0.377714794132168 0  -0.875 -1 0  -1 -0.875 0  0.6927189078571988 0.5156567235715964 0  -0.3742497615796874 -0.4296005251260107 0  -0.1969436423297711 -0.6387157229772615 0  -0.6179496409766825 -0.08933356056510935 0  -0.424405057115988 0.04452428810878029 0  -0.08479048335844169 0.1279607007132633 0  0.003830300099055113 0.8712085230656206 0  0.8748778838820267 -1.379218479898026e-05 0  -0.375 1 0  -0.625 1 0  1 0.125 0  -0.125 1 0  1 -0.375 0  1 -0.125 0  1 -0.625 0  0.625 -1 0  0.125 -1 0  -0.625 -1 0  -1 -0.625 0  -1 0.125 0  -1 0.375 0  -1 0.625 0  1 0.375 0  1 0.625 0  0.6325660748712082 0.3335187599557389 0  -0.06420945895056573 0.7549874027425891 0  -0.8769015540914771 0.2478802253893416 0  0.871875 0.871875 0  -0.6868091492840067 0.3270978624973681 0  -0.5363597469565949 0.412994850055505 0  -0.6803734992638302 0.5574295000651103 0  -0.7076253581162534 -0.8803439094224437 0  -0.8778089002295137 -0.5106896447504627 0  -0.3860184984222981 0.530566778071246 0  0.6109900617121508 0.1128453077697081 0  0.3896945134930274 -0.1915382873255086 0  0.7605656944697778 -0.06822134873122943 0  0.3576151269893478 0.5948388411612135 0  -0.5689902680792265 -0.5143596830118065 0  0.6262446286847614 -0.5735657901943212 0  0.2030558252325225 -0.5625263842513452 0  0.6123273142928579 0.7407533260723429 0  0.4016460890123554 -0.3042863223111857 0  -0.59039693199147 0.7578418819188018 0  0.7276932493917544 -0.3705808024528924 0  0.5222536818742854 -0.4713886230400014 0  -0.5101986527137737 0.8848365765607674 0  0.510560172809238 0.5356013299918891 0  -0.3603569195756083 0.75823710606415 0  0.1967279277813232 0.728226870058472 0  -0.6086880986371127 0.1545624071548516 0  -0.38105366729386 0.1511189987807864 0  -0.2944659463671584 -0.7359061804869591 0  0.5060729154966499 -0.3475227845833823 0  -0.09281616240412746 -0.06197858250969457 0  0.7649739583333334 0.6673177083333334 0  0.7628906249999999 0.890234375 0  -0.2666864184909611 0.2585504071132311 0  0.3635064892129658 0.3878003602709461 0  -0.2339409722222222 0.8901937905844155 0  -0.1718792125974916 -0.8957733325456778 0  0.1001768566329531 0.4023510017391879 0  0.3120260172693757 -0.4540546875576884 0  0.7804062804433681 0.1896628610854537 0  0.4087715451998049 0.187961780041608 0  -0.1584963477271457 0.5451611892421655 0  -0.8926817849258324 0.463022006336401 0  0.2338091473445219 -0.07576267331277289 0  0.08171112182813692 -0.2349087687359925 0  0.04635385178956847 -0.1044635073718474 0  -0.4377391632114205 -0.6448874471423088 0  -0.1907678351227189 0.6480215912813945 0  0.300605946475244 0.4741444604171038 0  -0.2145033720757486 -0.06751709909419711 0  0.6069191921170397 -0.005492331448357812 0  0.0214718770761248 0.6032397936031719 0  0.5476675683364878 0.8992752415326501 0  0.4387475014316537 0.9093708953002239 0  -0.4932997685306436 -0.4381009159993523 0  0.2515197695339056 -0.1791673369138964 0  -0.7291666666666667 -0.6088789682539681 0  -0.9166666666666667 -0.6875 0  0.620579540363709 -0.2122431523583302 0  -0.484950136419973 0.6719440339397442 0  0.2857044415400258 0.0137589173127316 0  -0.8945708364098356 -0.288306105327986 0  0.4043102720140535 0.7842914560451557 0  0.04123256238752064 -0.9026968245801402 0  0.2003676884403109 -0.9091888601740487 0  0.1068775558538842 -0.7373377130403223 0  -0.4804566783514427 -0.1763307203045643 0  0.108286342087769 -0.3993789328997278 0  -0.191883080105361 -0.3640821726430649 0  -0.07025064492006244 0.2984876656890053 0  -0.7039324641409584 0.788312126296613 0  -0.7311286585775438 0.8932502354831682 0  0.5171409396884947 0.1503852691889257 0  0.4229392823658633 -0.003216522184234835 0  -0.5621736087218259 -0.919558629836806 0  -0.626474064879544 -0.7266572613636506 0  0.2446828746617422 0.2867616783302419 0  0.1759429608742923 0.4776611759306416 0  -0.3468240303741654 -0.5260416435617549 0  -0.7465808808425306 0.4069574477998361 0  -0.7819962170660292 0.2802441065650652 0  -0.3742623214119594 -0.8547800509641984 0  0.1014498009713561 0.8506721983266377 0  0.4285217620918213 -0.5230190595570253 0  0.4091738370487775 -0.6256346204225141 0  0.78125 0.46875 0  0.90625 0.53125 0  -0.4791801348852565 0.2553992655702126 0  0.7843318610782772 -0.7086046956885941 0  0.8909728264971901 -0.7355183796514634 0  0.7041908166528879 -0.7830649143180282 0  0.7311821352
[...]
<PointData  Scalars="velocity-2"> 
<DataArray  type="Float64"  Name="velocity-2"  format="ascii">0.0000000000000000e+00  0.0000000000000000e+00  1.0000000000000000e+01  1.0000000000000000e+01  5.1114309149789490e+00  1.0000000000000000e+01  5.1114617893385255e+00  0.0000000000000000e+00  5.1114187971304155e+00  0.0000000000000000e+00  2.5795870263090941e+00  2.5795748530295364e+00  0.0000000000000000e+00  1.0000000000000000e+01  7.5780564788955544e+00  1.0000000000000000e+01  7.5780452179483824e+00  7.1709813245817156e+00  3.0057772166422989e+00  3.8534729429429366e+00  7.5780145610642444e+00  2.6506814701925050e+00  5.4768799677125912e+00  1.9375978701559846e+00  8.1861907582198938e+00  8.7344626760404509e+00  1.5000697862958925e+00  3.8534788571707845e+00  5.6365985486869974e+00  8.4388891010238254e+00  1.6693431982365410e+00  6.8306966920730279e+00  1.4145074131128055e+00  6.6684495196487088e+00  5.2137965715118115e+00  3.7567063594244576e+00  7.0206068925522409e+00  3.9909095087933584e+00  6.1957193684909448e+00  8.7920969647469374e+00  4.3816265920360484e+00  8.5930389661651763e+00  1.2931842571968368e+00  0.0000000000000000e+00  1.0000000000000000e+01  8.7921027354328896e+00  1.3241668341157637e+00  2.7796054164781197e+00  7.1203256001982229e+00  6.3524360925374665e+00  3.8535119257140096e+00  1.2931578714935583e+00  8.7921181525831464e+00  0.0000000000000000e+00  0.0000000000000000e+00  1.0000000000000000e+01  3.8534521016656553e+00  1.0000000000000000e+01  0.0000000000000000e+00  6.3524127644753703e+00  1.0000000000000000e+01  3.0697192555097383e+00  5.4357266468138947e+00  4.3220175351240284e+00  1.7944751256655829e+00  2.6153397653572656e+00  2.7167129854850396e+00  8.2584488270784338e+00  7.6589584364412540e+00  5.1000471509646834e+00  5.8582992311992621e+00  6.1138041108741357e+00  4.6858767801908634e+00  8.4497945522743656e-01  8.6255314457854193e-01  2.0953872664568394e+00  2.8523640532400067e+00  9.0944146222265516e+00  8.9432933610564156e+00  7.6225934975274159e+00  5.7339734525159756e+00  9.3949377824059499e-01  4.7216830971308950e+00  7.6195056431379822e+00  6.5585305414878876e+00  7.6368986214684513e+00  8.1861863805780821e+00  9.1106303406155948e+00  2.4780117560254222e+00  7.3220590806692187e-01  9.5708645707550721e-01  9.3168985881994910e+00  3.7580662176898758e+00  9.1510316816197310e+00  7.9839549822719382e+00  9.3676886052039237e+00  4.4845896394444127e+00  6.7665334090795248e-01  9.3707108627410225e+00  1.9376036823970151e+00  6.2732298570459966e+00  6.3295877645860319e+00  5.9722486220592863e+00  6.7193006656570704e+00  1.4007192692636314e+00  0.0000000000000000e+00  2.1632950650223188e+00  8.4207019646750325e+00  6.9669835084490472e+00  2.2128227017438578e+00  0.0000000000000000e+00  8.0030215227849300e-01  3.5264585054448672e+00  3.6514681876406665e+00  4.5725716829380287e+00  4.8589891515028478e+00  8.2879610943742748e+00  7.4048807670708641e+00  6.8506388511925316e+00  2.0337526623494608e+00  3.3818950834414445e+00  8.1862042430988655e+00  4.3071898418629289e+00  5.3434245981457034e+00  1.0000000000000000e+01  3.1744521120583329e+00  3.2050641893094438e+00  2.0533660604730888e+00  5.7340313713446172e+00  6.1108347962887306e+00  6.5113224861650005e+00  3.4547853450717492e+00  6.8253084976764864e+00  7.4499428251646567e+00  6.2954805738753183e+00  5.0875424030924110e+00  7.7649119729776361e-01  5.7203362680158927e+00  3.2084293100052159e+00  3.7269445912675838e+00  5.1354533317848050e+00  4.4845834178535542e+00  4.8110204737734108e+00  9.3964444485911436e+00  9.2970240942414222e+00  9.3964408998962252e+00  4.3587653488885856e+00  6.7863640105172935e+00  1.1107922354963906e+00  8.7427948125734769e+00  5.8976565563653942e+00  1.4007185272115843e+00  3.2183590925030572e+00  8.2994652766377239e+00  4.4617432166057318e+00  5.4833589390194479e+00  8.1359240453017367e+00  7.8468670677453982e+00  6.9669676427777238e+00  7.4936541736292153e+00  9.4153088589525282e+00  4.8151969726897326e+00  5.7393073741543361e+00  9.3676909708122125e+00  3.6445527243290470e+00  6.4704046071348320e-01  0.0000000000000000e+00  1.0000000000000000e+01  9.3964489926616253e+00  6.7829317142382162e-01  1.3192784064544085e+00  1.4736825069022084e+00  2.4462452625169728e+00  2.7205438858267947e+00  7.4484577610937599e+00  6.4703576637672056e-01  0.0000000000000000e+00  8.5146765740434365e+00  3.2221507068938187e+00  4.1218522514338245e+00  1.9738740683857006e+00  2.9662672332713909e+00  4.6866824625037253e+00  5.1305435520797102e+00  9.3958539184325662e+00  3.2183985014874676e+00  1.9376070800407417e+00  1.0000000000000000e+01  4.4845753138190645e+00  1.0000000000000000e+01  1.0000000000000000e+01  1.0000000000000000e+01  8.1862050186134816e+00  5.7340267542344048e+00  1.9376165039238471e+00  0.0000000000000000e+00  0.0000000000000000e+00  0.0000000000000000e+00  0.0000000000000000e+00  1.0000000000000000e+01  1.0000000000000000e+01  8.2229214664066603e+00  4.7899592311846071e+00  6.3718957465637538e-01  9.3813512387651325e+00  1.6192348089023498e+00  2.3931350353975325e+00  1.6523986704908133e+00  1.5118600844913885e+00  6.3249779379035820e-01  3.1621822076421631e+00  8.1181458662592743e+00  7.0389201914136565e+00  8.8432275224008485e+00  6.8816678697846578e+00  2.2255865260745704e+00  8.1922410438266926e+00  6.1206352709296592e+00  8.1246447913024387e+00  7.0974773693389883e+00  2.1155920345878916e+00  8.6841051558165709e+00  7.6864815372399313e+00  2.5272783436496451e+00  7.6295016637009514e+00  3.2929563199687188e+00  6.0893232161221649e+00  2.0215399720388443e+00  3.1874843925143583e+00  3.6279917207478611e+00  7.6076400473968713e+00  4.6463634875937307e+00  8.8645554141356389e+00  8.8544758634387222e+00  3.7689288176562257e+00  6.9105603778699454e+00  3.9347682310078116e+00  4.2483541481076150e+00  5.6106850111652449e+00  6.6578103169320366e+00  8.9392210359658222e+00  7.1323581973461332e+00  4.3158611774882099e+00  5.5554032511748930e-01  6.2725267152273956e+00  5.5188515373278921e+00  5.3427812287472456e+00  2.8981633123609347e+00  4.1530354797073548e+00  6.6016395438320146e+00  4.0331248149991552e+00  8.0983761824475966e+00  5.2186887082879432e+00  7.8102425643490703e+00  7.2789825559583328e+00  2.6138449143209130e+00  6.3598927382344987e+00  1.4007196458132343e+00  4.3140862044394873e-01  8.1647319338353981e+00  2.6566269943350509e+00  6.5283187487475827e+00  5.4576282214406768e-01  7.1105151371293474e+00  5.3172456619942006e+00  6.1073532902612220e+00  5.6439942405973591e+00  2.6796395969786149e+00  5.6509907693356043e+00  4.1474121899096454e+00  4.7596443632897927e+00  1.5309107475403225e+00  1.3906086115586307e+00  7.6615775257561882e+00  7.2016788817138719e+00  2.2605984170239983e+00  1.9300173830653156e+00  6.3261885215114440e+00  5.9864928644764435e+00  3.3618636793600212e+00  1.3108269775713506e+00  1.1279216916944121e+00  3.2221132705055289e+00  5.6170197851299637e+00  7.2289687420128201e+00  7.1343303603801917e+00  8.9432942543775873e+00  9.5473763503704401e+00  2.6861847881645793e+00  8.9582072719331478e+00  9.4735920221984351e+00  8.5702626715194743e+00  8.7009967330252636e+00  4.2420175118989523e-01  4.8215259673408667e-01  1.1162531177025610e+00  3.9360250250788109e+00  1.0363713156139385e+00  5.2989401657477087e-01  4.6991687960420214e-01  9.0102473788075732e-01  8.9178469879896205e-01  9.4820916980525087e+00  3.6649404862050670e+00  2.1606006404082998e+00  6.9845158417300679e+00  4.7291421611448303e+00  5.2236768142117898e+00  4.2721291446796954e+00  1.1974946388358287e+00  6.6650135957620842e+00  5.7137745619992906e+00  3.1607602730325617e+00  3.4519000504900119e+00  4.0652363357778121e-01  7.8824215028741511e+00  9.4946386648161347e+00  9.5495961054377396e+00  9.3983306280995098e+00  2.4296524181077643e+00  2.7217822672718408e+00  2.0919528364663083e+00  6.3066658515396314e+00  8.7704877733554358e+00  3.4598991654533005e+00  6.7024990687727533e+00  6.2724787195809713e+00  4.3088328360806072e+00  7.4492494507581499e+00  4.2130641184255575e+00  1.9225539747254918e+00  8.7166037545792463e+00  3.5363966902691883e+00  8.9377507514531604e+00  8.9087146741045997e-01  9.5509113504904946e+00  3.4702108773323626e-01  2.5043015526488355e+00  8.4002490592444978e+00  8.0722201568599541e+00  8.0107762526626161e+00  4.7985341366001020e+00  1.0981636407836441e+00  3.3839188045381069e-01  9.0423291388611666e+00  9.6854073218586105e+00  3.5599077761032678e+00  6.6601077845539507e+00  7.7151139728930129e+00  7.2728651395013904e+00  9.6852781391815537e+00  9.0944215744535626e+00  6.5219922110894615e+00  5.7542663412769599e+00  2.8993651717051532e+00  1.2581784283640640e+00  1.0744599871807625e+00  1.7265339470617171e+00  9.6850331100593632e+00  3.2431408475913787e-01  3.2468477663745982e-01  9.6854068893865097e+00  9.6839024968316743e+00  5.4232294152049869e+00  4.1687720485150143e-01  9.6835406534026998e+00  8.5977435700289444e+00  7.9808355963656092e+00  5.6763459638846143e+00  6.0412809337162363e+00  8.4893767591398106e+00  7.0180724948556206e+00  6.7994262252203974e+00  5.1204053822499294e+00  5.5343901242580893e+00  3.3839171230502824e-01  1.6203993901317217e+00  8.5654557433184841e+00  3.8637122283053693e+00  4.3545414476311590e+00  2.7106024942744713e+00  5.0854048168634307e+00  6.0436786979293116e+00  2.5439063305760876e+00  3.6644336097053398e+00  3.2169431949542791e+00  3.9953924543724106e+00  7.9594375337192984e+00  7.2905496120891344e+00  9.1407540380042498e+00  5.1409069603393833e+00  2.5136090704782887e+00  9.9444810775795833e-01  3.6193582333758156e+00  8.7091302824534136e+00  9.2112899300692845e+00  4.3140469510385449e-01  3.8312011573613808e-01  7.8994876178770612e+00  8.5330100912318976e+00  4.0153991218616900e+00  8.4721490695149058e+00  4.4804195795992205e+00  6.4159478843783848e+00  7.7960845115683810e+00  2.9317000222949989e+00  2.3169988784981252e+00  4.8791210112232699e+00  5.0580322726018556e+00  4.7874527939458567e+00  5.8187058096477733e+00  2.3060799286539857e+00  1.8460759789734604e+00  2.0265134519811365e+00  1.8765173073978088e+00  2.3489120153872940e+00  2.2589653015803055e+00  4.7344471359035341e+00  5.0965204005622207e+00  4.1738239207872097e+00  7.5872650170947802e+00  6.3757868545258161e+00  1.7328344563139124e+00  2.3185164385293615e+00  8.7807170795277845e+00  4.4284995293177749e+00  7.1534718218592914e+00  7.7869741919590814e+00  7.2627011144813487e+00  2.8993869585832450e+00  6.1765033555204534e+00  3.6024989117766819e+00  3.6259596910290419e+00  5.8904832357742825e+00  5.1529531677884686e+00  5.7104159284748137e+00  6.1333943557497035e+00  4.7126066921455303e+00  3.2336139869313580e+00  3.0589803418262931e+00  9.1327894409659489e+00  9.6961727685979042e+00  6.6818186762193967e+00  4.5566142938117882e-01  4.3604136985271014e+00  7.3506048021968571e+00  3.4813233674361621e+00  9.1636384769881474e+00  2.9477518704787076e+00  6.5989931903972492e+00  3.9786317913745237e+00  2.8486372670417293e+00  9.6585211386021470e+00  5.3375602990056503e-01  5.8493463346530472e+00  8.1848627612096152e+00  9.4144601763257629e+00  3.2357397475729821e-01  8.9741905798552217e+00  4.1695235504501076e+00  3.4317173809430619e+00  1.6553873810449420e+00  4.0778258040869447e-01  6.4242034917854376e+00  1.0758357695756833e+00  1.7342600064460008e+00  1.7680224926364865e+00  5.2839274333399446e+00  5.2923840106473223e+00  8.4894101229786934e+00  8.3675172970224754e+00  6.3521885220780723e+00  1.0000000000000000e+01  2.9670508002905098e+00  9.8534583470143577e-01  7.8185453888325744e+00  3.6828949515147538e+00  3.2155014974069540e+00  4.7619899983638208e+00  1.9014878011693388e+00  1.6156424619305938e+00  7.9489234688448898e+00  8.6489435805598944e+00  2.3801337920148078e+00  2.2846276415462570e+00  6.6601417856978049e+00  3.1396065454834874e+00  5.9251491306204116e+00  2.9881910101413611e+00  4.3886554290627586e+00  4.0709873556434824e+00  4.7279613614395402e+00  1.0000000000000000e+01  9.3338660126630995e+00  7.7328064325888883e+00  7.3918434347382327e+00  7.5563426184925986e-01  8.5044052387820503e+00  8.0059954809949332e+00  6.5646579259558813e+00  4.9768619767281663e+00  1.6156679545731478e+00  9.6801545760704251e+00  4.2573858573642891e+00  3.8903148633264237e+00  1.4600855941022737e+00  9.6132350846079195e-01  7.3126471504462529e+00  8.1514453289621720e+00  4.1045015567271994e+00  5.2863736463718389e+00  5.9239109335677629e+00  5.9823249143378856e+00  5.7008273413887061e+00  1.9071993681009578e+00  7.9849952880084070e+00  0.0000000000000000e+00  1.7766983274334196e+00  2.1485602942048376e+00  4.5773529622413474e+00  2.9655010400856394e+00  3.4527528502890772e+00  9.2188595126124362e+00  7.1419565745207185e+00  7.3812165008725579e+00  4.7002281442505778e+00  3.6618208957658127e-01  8.4655119079092458e+00  4.4777988404619897e+00  4.9965969128687657e+00  5.0233377250175435e+00  1.0000000000000000e+01  8.3136865846953540e+00  7.9206481028715094e+00  8.3938479950753724e+00  3.3232389089747776e+00  9.6982713440100099e+00  9.2454564017943124e+00  9.6485982256786080e+00  0.0000000000000000e+00  9.6982741661435234e+00  4.5156857964788060e+00  1.2440927442317395e+00  1.6132445782402329e+00  6.6899614258274980e+00  6.7106860396239565e+00  6.9460058173887944e+00  6.8620970786003674e+00  9.6656842951832687e+00  9.1105447018170658e+00  5.9820823591651155e+00  5.5631095983616001e+00  8.0671441131307675e-01  3.9808636556536308e+00  5.4820477298912662e+00  3.7761861185285279e+00  2.6727892691438182e+00  1.1702042809221274e+00  1.6936886976459744e+00  1.1317625117238022e+00  3.4957205730552210e+00  8.4985369229231278e+00  1.9952051322271012e+00  7.1396630791407389e+00  0.0000000000000000e+00  2.3575291185170784e+00  9.6745883672901680e+00  6.3743743168969014e-01  6.8976000042743104e+00  5.3761153527403653e+00  3.2574543962583093e+00  6.1672032044355749e+00  5.3950035681992512e+00  4.8114514020264441e+00  5.1098261661916267e+00  7.3430412873199025e+00  9.6839684788778531e+00  1.0215672812419314e+00  9.0553666231106735e+00  5.4596394091908511e+00  9.6915209599353229e+00  5.8610454941361247e+00  6.8296808670869984e+00  5.1352170248464386e+00  2.2221008450075641e+00  4.6568858110360702e+00  1.0000000000000000e+01  5.4954556165964554e+00  1.1502988815662951e+00  6.6017297314888150e+00  1.4404158604335793e+00  4.4788454139878668e+00  9.0471329807604945e+00  7.5798354495964171e+00  1.2816662754196313e+00  1.1749082915014688e+00  3.4183996885943473e+00  9.6355614284888425e-01  2.2080824436929993e+00  2.5942966802072092e+00  2.3871585679616909e+00  2.8466848899745645e+00  2.7372439021468997e+00  9.6839008979509344e+00  1.0000000000000000e+01  1.4236660309247198e+00  5.5073694630454311e+00  8.1930284079355236e+00  7.4834195510200692e+00  7.1978849410830659e+00  7.7734308704898485e+00  9.2706452954049645e+00  4.1696008711166535e+00  8.8245044069621379e+00  3.9066611540958700e+00  4.1587733991457032e+00  6.3612270213293893e+00  9.1615048560757941e+00  5.8005260985155900e+00  3.2699212901064616e+00  8.3619851242168437e+00  4.4633906478927869e+00  5.9552281051241289e+00  8.3988030699202412e+00  8.2678810998965986e+00  5.4232926280288822e+00  0.0000000000000000e+00  9.1787731282968323e+00  0.0000000000000000e+00  8.1713467282305405e+00  4.7995505233248297e+00  2.9059670052596958e+00  2.9286121717584277e+00  2.9723117297135788e+00  6.8648004939102867e+00  4.4161252857762969e+00  7.8824473266958242e+00  1.3498730066342215e+00  4.0544319351382816e+00  8.6087804490012942e+00  7.6594341882520673e+00  1.4007332027492196e+00  4.4291240446822879e+00  4.4801669085361855e+00  5.3722685264485222e+00  8.9391234919754812e+00  7.9512518904134133e+00  6.9689817962899232e+00  6.4460306589790441e+00  8.5504900349795534e+00  9.3835389590425571e+00  9.6979813472822762e+00  7.5741817505181306e+00  7.7661615086881830e-01  5.1117260546469225e+00  3.5543199871917219e-01  5.7316553286219643e+00  9.6980075290596215e+00  1.0000000000000000e+01  1.0000000000000000e+01  9.0944127602542952e+00  3.5364098643550506e+00  8.4894128911523072e+00  0.0000000000000000e+00  3.2356993624236718e-01  5.4232775472233206e+00  0.0000000000000000e+00  1.0000000000000000e+01  2.8994091802887474e+00  9.0944219566864390e+00  1.0000000000000000e+01  7.2729162080385805e+00  6.6601730389621796e+00  1.0000000000000000e+01  1.0000000000000000e+01  1.0000000000000000e+01  0.0000000000000000e+00  0.0000000000000000e+00  0.0000000000000000e+00  4.7985482663632029e+00  0.0000000000000000e+00  3.5364475545859526e+00  7.8824446446980074e+00  0.0000000000000000e+00  9.7026949081647884e-01  9.7028152184181304e-01  0.0000000000000000e+00  2.2589430522966469e+00  6.0437447951317038e+00  0.0000000000000000e+00  7.2728895111112193e+00  1.0000000000000000e+01  1.0000000000000000e+01  9.6982723518841620e+00  0.0000000000000000e+00  6.0437486324737062e+00  0.0000000000000000e+00  4.7985045101927399e+00  1.0000000000000000e+01  1.0000000000000000e+01  2.4148353616676212e+00  7.6638871788875669e+00  2.8112413345640480e-01  6.2978033130166846e+00  5.9431173763136345e+00  8.0762625609721983e+00  4.0081547226221055e+00  2.2711378666025119e+00  2.5175187062000624e+00  2.0338931951636541e+00  9.0431355250724614e+00  1.7767065734230190e+00  3.0508371019299008e-01  1.5151644316825272e+00  8.6396384020775745e+00  6.5635352900067756e-01  8.1756283790353779e-01  3.1823265061892914e-01  6.6094829440447644e-01  4.8532157576966056e-01  7.2780907500603487e-01  6.7683979529025473e-01  9.0729633180946792e+00  8.7420768053643645e+00  2.4050009662691241e+00  5.7645907275650652e+00  9.6667978568376878e+00  9.5357276787730538e-01  6.5282356320996815e+00  4.3405753071369775e+00  1.4371969437735963e+00  4.0392495537375934e+00  2.9912285700255881e+00  3.6984170915657284e+00  7.7428864099397545e+00  9.2234288610742432e+00  2.2053914002249484e+00  8.8947888842302945e+00  8.6232517542187583e+00  6.8566392239806104e+00  3.5612819974186420e+00  4.9225178866967614e+00  7.1002022660808004e+00  2.7223248386774377e+00  5.5165682567603964e+00  9.0443847307334817e+00  2.9697693334672688e+00  6.3809564327548864e+00  8.3236383255436621e+00  7.8223421011553809e+00  8.2680100215161971e+00  3.1181418546009970e-01  2.6973074834662185e+00  2.3910131399091799e+00  2.0985551140540983e+00  1.3747286094561986e+00  1.7376400000294026e+00  4.2365125346840848e+00  5.3455978808915381e+00  4.9856066837119428e+00  7.8576646938210670e+00  9.3995596353646604e+00  9.1842723359952529e+00  7.5421229468479414e+00  7.3737053125349892e+00  4.0824254352348373e+00  5.3752116355192134e+00  1.2585563175325867e+00  1.4516978148735751e+00  1.9208476615778938e+00  1.7250684407853567e+00  2.0725028131419059e+00  1.9678386245567838e+00  1.7973455859530072e+00  6.4939706230736247e+00  6.4170713049005590e+00  3.9747414410286290e+00  6.0141578408094558e+00  9.0108261807604553e+00  3.4725589344634225e+00  3.0199133910749461e+00  9.7314044412630611e+00  8.6355045487855708e+00  8.8100485289064778e+00  5.5548831619181511e+00  9.4647468013851721e-01  6.5617386669886164e+00  4.9597973205050820e+00  3.4237636654742545e+00  7.0804475455694744e+00  7.9067347664294241e+00  1.8277877456642686e+00  8.4735781674545887e+00  8.2349925671906536e+00  7.8488211710285967e+00  9.6866962551134570e+00  8.7994958100984846e+00  8.9060563515505997e+00  9.1960816051036911e+00  8.5265133529660275e+00  3.2019123597945538e+00  1.1821734272588746e+00  1.7217957315023171e+00  9.6966492072970940e+00  3.2983333260064684e+00  1.7352090306424066e+00  6.5948268356869395e+00  7.1292032249342228e+00  4.5770919357484683e+00  3.7480883150312665e+00  4.8797414719769598e+00  2.3187697533528717e+00  2.4541507484235456e+00  2.2398626054774646e+00  2.5813379613866122e-01  3.1356446066280488e+00  8.2595201614362015e+00  7.9031294411162243e+00  1.4858192795965581e+00  9.2567069989369717e+00  7.9515287446786704e+00  8.5417876170228659e+00  7.4389861525951231e+00  6.3647726286334203e+00  1.7741563276934824e+00  1.5200197092001915e+00  1.2052852376963024e+00  1.2950507935218061e+00  6.0445440394272829e+00  7.80090