<?xml version="1.0"?>
<VTKFile type="UnstructuredGrid"  version="0.1"  >
<UnstructuredGrid>
<Piece  NumberOfPoints="2513" NumberOfCells="4852">
<Points>
<DataArray  type="Float64"  NumberOfComponents="3"  format="ascii">-1 1 0  -1 -1 0  1 -1 0  1 1 0  0 -1 0  1 0 0  0 1 0  -1 0 0  0 0 0  -1 -0.5 0  -0.5 -1 0  -0.5 1 0  -1 0.5 0  1 -0.5 0  0.5 -1 0  1 0.5 0  0.5 1 0  0.4166666666666666 -0.4166666666666667 0  -0.4166666666666667 0.4166666666666667 0  -0.25 -0.5 0  0.5 0.25 0  -0.4861111111111112 -0.06944444444444445 0  0.0732758620689655 0.507183908045977 0  -0.625 -0.625 0  0.625 0.625 0  0.7380952380952381 -0.25 0  -0.7099116161616161 0.2105429292929293 0  -0.25 0.7380952380952381 0  0.105392156862745 -0.6348039215686275 0  0.6770833333333334 -0.6770833333333333 0  -0.6770833333333334 0.6770833333333334 0  0.3472222222222222 -0.06944444444444446 0  -0.7264957264957265 -0.3044871794871795 0  0.3141940982507127 0.7297313660835709 0  0.02049587951122483 -0.3227479397556124 0  -0.2690972222222223 0.1475694444444444 0  0.3859500089908372 -0.7274430156831472 0  -0.2228477945123298 -0.1761765495248019 0  0.2182539682539683 0.1884920634920635 0  0.75 0.375 0  -0.145442219440968 -0.7602211097204841 0  0.7088913690476191 0.0427827380952381 0  -0.75 -1 0  -1 -0.75 0  1 0.75 0  0.75 1 0  -0.7439982703698937 -0.04614153195464455 0  -0.4609235096577606 -0.3356498099556895 0  0.4063134471431929 0.4895621842856023 0  0.25 -1 0  -0.25 -1 0  -0.75 1 0  0.75 -1 0  -1 -0.25 0  -1 0.25 0  1 -0.25 0  -0.25 1 0  1 -0.75 0  -1 0.75 0  0.25 1 0  1 0.25 0  -0.4041423272138783 -0.7597141090712928 0  0.06500839607911253 0.7578103030529481 0  -0.1572801182352047 0.3838997021864289 0  -0.6528005242053915 0.4409494757946086 0  -0.4930160984848485 0.1544744318181818 0  -0.4732142857142858 0.7752976190476191 0  0.6398809523809523 -0.4538690476190476 0  0.5166054117396399 -0.2161233620965164 0  -0.002273787244753427 0.2232363985975174 0  0.1500564496765022 -0.1524955293952667 0  0.2016720420046758 -0.4410343282803009 0  -0.08495178036419618 0.6274139771124571 0  -0.8367311471133162 0.3642591720794645 0  -0.8333333333333334 -0.625 0  -0.594323836800685 -0.8231079456002283 0  -0.4466957714776065 -0.5349126855671806 0  0.8125 0.5625 0  0.78125 0.78125 0  0.5091392650016769 0.7947130883338923 0  0.125 -0.8382681931833136 0  -0.8184523809523809 -0.8184523809523809 0  -0.07781530426104531 -0.5819319697006881 0  0.5085055196703295 0.04967610411902112 0  0.2918471072074933 -0.276017202318847 0  0.5120763537765269 -0.5898771553229597 0  0.625 -0.8585349462365591 0  0.8158532234335381 -0.8158532234335381 0  -0.5198088446315396 0.5739411553684605 0  -0.8585349462365591 0.625 0  -0.8150493805516597 0.8156205699829586 0  0.8585349462365591 -0.625 0  -0.2688268348649726 0.5439331383603209 0  0.8242100426758139 -0.4436043596336612 0  0.5833756314287952 0.4479378157143976 0  0.8690476190476191 -0.125 0  -0.125 0.8690476190476191 0  -0.8692745600729823 0.125 0  0.8696725120759167 0.125 0  -0.625 0.8711516477451908 0  0.2339522463269718 0.3879558377955778 0  0.2453709502295031 0.5655822922838026 0  0.1730610651637797 0.02021709580868947 0  0.3245402594056757 -0.5644672020485209 0  -0.7291666666666666 -0.4816595441595442 0  -1 -0.375 0  -0.5811140848639904 -0.2127276307675001 0  0.673332592838314 0.2158348143233718 0  0.375 1 0  -0.5714768890989919 0.2985103444040069 0  -1 -0.125 0  -0.8453692574786325 -0.1875 0  -0.3144549134065865 -0.02408675326008025 0  -0.2898414972096258 -0.3336092734780093 0  -0.1075052092206287 -0.4224330421314983 0  -0.05043970703604117 -0.1652278959397459 0  0.6459672950297897 -0.1113415301525317 0  0.4645210271029513 0.6398480556579343 0  0.3512863754411909 0.0937979496253573 0  -0.6063160985568274 0.03891469652249891 0  -0.3428819444444445 0.8690476190476191 0  0.625 1 0  -0.1602164796159982 0.02697860906625157 0  0.04648110064133829 -0.4808416424239687 0  1 0.875 0  -0.3836102479201657 0.6484936449177356 0  -0.3776011723096096 0.263078478984336 0  -0.6024978259969829 -0.3949628096211138 0  0.125 1 0  0.2010781308272777 0.8456221018461906 0  0.2822509696388829 -0.845902544691141 0  -0.3285533674953515 -0.6289773550938936 0  0.3461306793221754 0.278777492464833 0  0.4737475672408696 -0.8508448959534423 0  0.2384632828836344 -0.7029523187242811 0  -0.004777287059791593 0.3759269695907358 0  -0.8499735021850066 -0.3912320205328522 0  0.1222536293721587 0.2963971539625205 0  -0.3769456520999688 -0.203572526805711 0  -0.2749617205755651 -0.8464290792698902 0  0.004805888512766143 -0.747174355248311 0  -0.125 -1 0  -0.06001061822252458 -0.8724007765244854 0  0.875 0.4375 0  0.854421179608893 0.271342359217786 0  0.875 1 0  -0.1499861095763589 0.2358309656934888 0  0.3381943639137225 0.8663061796405532 0  -0.7853090110442228 0.4998412775277108 0  0.7398165998560814 -0.5535192694951373 0  0.1580042122341573 -0.3100246140259917 0  -0.7291666666666667 -0.7142857142857142 0  -0.375 -1 0  0.6483368386154684 0.8514905990110488 0  -0.1295370103291928 -0.2826118305021242 0  0.07458201853700455 0.1123894386563915 0  0.6146465857036327 -0.3161203659316075 0  0.5551898493894731 -0.740296118159085 0  0.375 -1 0  0.482702798370208 -0.084133350091034 0  0.87890625 0.68359375 0  -0.05917195534525846 0.4971092425697621 0  0.1260710309213975 0.6343750312956699 0  0.8690476190476191 -0.3077066815262848 0  -0.2912010232560567 0.3668168386732139 0  -0.875 1 0  -1 0.875 0  1 -0.875 0  0.875 -1 0  -0.8689564281364567 -0.006189266075306407 0  -0.7449425635110547 0.08458938160051771 0  -0.7150266761936593 -0.1739444581417552 0  -0.5260034831318311 -0.711099823962112 0  -0.4724626808827322 -0.871722230709409 0  0.4734436795977052 0.377714794132168 0  -0.875 -1 0  -1 -0.875 0  0.6927189078571988 0.5156567235715964 0  -0.3742497615796874 -0.4296005251260107 0  -0.1969436423297711 -0.6387157229772615 0  -0.6179496409766825 -0.08933356056510935 0  -0.424405057115988 0.04452428810878029 0  -0.08479048335844169 0.1279607007132633 0  0.003830300099055113 0.8712085230656206 0  0.8748778838820267 -1.379218479898026e-05 0  -0.375 1 0  -0.625 1 0  1 0.125 0  -0.125 1 0  1 -0.375 0  1 -0.125 0  1 -0.625 0  0.625 -1 0  0.125 -1 0  -0.625 -1 0  -1 -0.625 0  -1 0.125 0  -1 0.375 0  -1 0.625 0  1 0.375 0  1 0.625 0  0.6325660748712082 0.3335187599557389 0  -0.06420945895056573 0.7549874027425891 0  -0.8769015540914771 0.2478802253893416 0  0.871875 0.871875 0  -0.6868091492840067 0.3270978624973681 0  -0.5363597469565949 0.412994850055505 0  -0.6803734992638302 0.5574295000651103 0  -0.7076253581162534 -0.8803439094224437 0  -0.8778089002295137 -0.5106896447504627 0  -0.3860184984222981 0.530566778071246 0  0.6109900617121508 0.1128453077697081 0  0.3896945134930274 -0.1915382873255086 0  0.7605656944697778 -0.06822134873122943 0  0.3576151269893478 0.5948388411612135 0  -0.5689902680792265 -0.5143596830118065 0  0.6262446286847614 -0.5735657901943212 0  0.2030558252325225 -0.5625263842513452 0  0.6123273142928579 0.7407533260723429 0  0.4016460890123554 -0.3042863223111857 0  -0.59039693199147 0.7578418819188018 0  0.7276932493917544 -0.3705808024528924 0  0.5222536818742854 -0.4713886230400014 0  -0.5101986527137737 0.8848365765607674 0  0.510560172809238 0.5356013299918891 0  -0.3603569195756083 0.75823710606415 0  0.1967279277813232 0.728226870058472 0  -0.6086880986371127 0.1545624071548516 0  -0.38105366729386 0.1511189987807864 0  -0.2944659463671584 -0.7359061804869591 0  0.5060729154966499 -0.3475227845833823 0  -0.09281616240412746 -0.06197858250969457 0  0.7649739583333334 0.6673177083333334 0  0.7628906249999999 0.890234375 0  -0.2666864184909611 0.2585504071132311 0  0.3635064892129658 0.3878003602709461 0  -0.2339409722222222 0.8901937905844155 0  -0.1718792125974916 -0.8957733325456778 0  0.1001768566329531 0.4023510017391879 0  0.3120260172693757 -0.4540546875576884 0  0.7804062804433681 0.1896628610854537 0  0.4087715451998049 0.187961780041608 0  -0.1584963477271457 0.5451611892421655 0  -0.8926817849258324 0.463022006336401 0  0.2338091473445219 -0.07576267331277289 0  0.08171112182813692 -0.2349087687359925 0  0.04635385178956847 -0.1044635073718474 0  -0.4377391632114205 -0.6448874471423088 0  -0.1907678351227189 0.6480215912813945 0  0.300605946475244 0.4741444604171038 0  -0.2145033720757486 -0.06751709909419711 0  0.6069191921170397 -0.005492331448357812 0  0.0214718770761248 0.6032397936031719 0  0.5476675683364878 0.8992752415326501 0  0.4387475014316537 0.9093708953002239 0  -0.4932997685306436 -0.4381009159993523 0  0.2515197695339056 -0.1791673369138964 0  -0.7291666666666667 -0.6088789682539681 0  -0.9166666666666667 -0.6875 0  0.620579540363709 -0.2122431523583302 0  -0.484950136419973 0.6719440339397442 0  0.2857044415400258 0.0137589173127316 0  -0.8945708364098356 -0.288306105327986 0  0.4043102720140535 0.7842914560451557 0  0.04123256238752064 -0.9026968245801402 0  0.2003676884403109 -0.9091888601740487 0  0.1068775558538842 -0.7373377130403223 0  -0.4804566783514427 -0.1763307203045643 0  0.108286342087769 -0.3993789328997278 0  -0.191883080105361 -0.3640821726430649 0  -0.07025064492006244 0.2984876656890053 0  -0.7039324641409584 0.788312126296613 0  -0.7311286585775438 0.8932502354831682 0  0.5171409396884947 0.1503852691889257 0  0.4229392823658633 -0.003216522184234835 0  -0.5621736087218259 -0.919558629836806 0  -0.626474064879544 -0.7266572613636506 0  0.2446828746617422 0.2867616783302419 0  0.1759429608742923 0.4776611759306416 0  -0.3468240303741654 -0.5260416435617549 0  -0.7465808808425306 0.4069574477998361 0  -0.7819962170660292 0.2802441065650652 0  -0.3742623214119594 -0.8547800509641984 0  0.1014498009713561 0.8506721983266377 0  0.4285217620918213 -0.5230190595570253 0  0.4091738370487775 -0.6256346204225141 0  0.78125 0.46875 0  0.90625 0.53125 0  -0.4791801348852565 0.2553992655702126 0  0.7843318610782772 -0.7086046956885941 0  0.8909728264971901 -0.7355183796514634 0  0.7041908166528879 -0.7830649143180282 0  0.7311821352
[...]
<PointData  Scalars="velocity-2"> 
<DataArray  type="Float64"  Name="velocity-2"  format="ascii">0.0000000000000000e+00  0.0000000000000000e+00  1.0000000000000000e+01  1.0000000000000000e+01  4.2836776340340519e+00  1.0000000000000000e+01  4.2833535921201751e+00  0.0000000000000000e+00  4.2836001966541284e+00  0.0000000000000000e+00  1.9700964055929262e+00  1.9702413844636755e+00  0.0000000000000000e+00  1.0000000000000000e+01  7.0230056368555562e+00  1.0000000000000000e+01  7.0229580931272828e+00  6.5433341097996953e+00  2.3258482875396904e+00  3.0708932012393118e+00  7.0232218914193627e+00  2.0288929546682017e+00  4.6609810338909146e+00  1.4563447118708384e+00  7.7551485208583895e+00  8.4266492501088344e+00  1.1176501173071378e+00  3.0708712723849692e+00  4.8293785721458198e+00  8.0633462784209122e+00  1.2477758434712019e+00  6.1492656147479519e+00  1.0524369855654649e+00  5.9639803672601204e+00  4.3882893911373264e+00  2.9830105926896584e+00  6.3683458569774851e+00  3.1969981209010054e+00  5.4343815972123677e+00  8.4976675283949099e+00  3.5640112028648798e+00  8.2524515184149827e+00  9.6019096800999570e-01  0.0000000000000000e+00  1.0000000000000000e+01  8.4976210164082175e+00  9.8370144136684878e-01  2.1357551277668887e+00  6.4839315889519122e+00  5.6079611851008577e+00  3.0706579148947482e+00  9.6035196342291185e-01  8.4975527637238510e+00  0.0000000000000000e+00  0.0000000000000000e+00  1.0000000000000000e+01  3.0710914303543650e+00  1.0000000000000000e+01  0.0000000000000000e+00  5.6081183100629586e+00  1.0000000000000000e+01  2.3801057862326740e+00  4.6180040496345240e+00  3.5069806479061598e+00  1.3444888288396453e+00  1.9996372547567303e+00  2.0834184542306438e+00  7.8428532207338240e+00  7.1198086389745816e+00  4.2722214132349396e+00  5.0660739237452255e+00  5.3439674741152752e+00  3.8584259185442127e+00  6.2391817523464110e-01  6.3701092585054619e-01  1.5806648890246873e+00  2.1965208135763379e+00  8.8717832603015783e+00  8.6845348564100053e+00  7.0761170854538573e+00  4.9331455585023702e+00  6.9440833406575553e-01  3.8939290446478303e+00  7.0725638983670791e+00  5.8395537155225563e+00  7.0933869625818300e+00  7.7550220159034975e+00  8.8918620152023742e+00  1.8875135770740945e+00  5.4007320572997619e-01  7.0752686336705306e-01  9.1481463925506734e+00  2.9843675750241978e+00  8.9419368271299220e+00  7.5099825592162563e+00  9.2113147925757151e+00  3.6624891693729049e+00  4.9882581710408469e-01  9.2150398795441397e+00  1.4562008317759050e+00  5.5200253127242345e+00  5.5824922415269613e+00  5.1893883658270976e+00  6.0220450414870834e+00  1.0419024783483100e+00  0.0000000000000000e+00  1.6345659054069244e+00  8.0411469109935325e+00  6.3057123196138978e+00  1.6737991695645085e+00  0.0000000000000000e+00  5.9070379849555532e-01  2.7768704821868702e+00  2.8884677363052669e+00  3.7480092042727375e+00  4.0297295179848964e+00  7.8788591027267101e+00  6.8182028393534564e+00  6.1720506267277138e+00  1.5317090294617139e+00  2.6496805707638966e+00  7.7549842861873559e+00  3.4931551634335474e+00  4.5217682238897350e+00  1.0000000000000000e+01  2.4697160661251418e+00  2.4961700356881962e+00  1.5473288823003872e+00  4.9327397565358639e+00  5.3410737337361693e+00  5.7861110007267671e+00  2.7137669367000679e+00  6.1434172175044708e+00  6.8712229074351105e+00  5.5448642638467032e+00  4.2595307018709230e+00  5.7296535519279557e-01  4.9184838762884073e+00  2.4988984403622787e+00  2.9562172626193561e+00  4.3081510880210763e+00  3.6625907620461908e+00  3.9818154367701482e+00  9.2471456899063504e+00  9.1233944106835008e+00  9.2471417600572163e+00  3.5420177824549981e+00  6.0985350519862553e+00  8.2280357226749146e-01  8.4368560035987930e+00  5.1087795381365790e+00  1.0419576833919155e+00  2.5074307998716128e+00  7.8929269363521612e+00  3.6407148970489325e+00  4.6679704622258651e+00  7.6940411650702139e+00  7.3447878912847946e+00  6.3061013032412108e+00  6.9229587941896211e+00  9.2706761618108100e+00  3.9862658411750305e+00  4.9386514645226827e+00  9.2113769146545987e+00  2.8822714117402053e+00  4.7682377122132169e-01  0.0000000000000000e+00  1.0000000000000000e+01  9.2470886401793511e+00  5.0008875718425350e-01  9.8006806667885615e-01  1.0975462717025419e+00  1.8617152141476780e+00  2.0867268555223126e+00  6.8694796817957950e+00  4.7685276953382771e-01  0.0000000000000000e+00  8.1562407784644257e+00  2.5108603815881141e+00  3.3186799703145224e+00  1.4848121534753287e+00  2.2923967010401349e+00  3.8593257333880224e+00  4.3034183466187015e+00  9.2464350420293098e+00  2.5071036285779491e+00  1.4561875827521698e+00  1.0000000000000000e+01  3.6626752567219185e+00  1.0000000000000000e+01  1.0000000000000000e+01  1.0000000000000000e+01  7.7549143444598085e+00  4.9327994751281246e+00  1.4561860264195943e+00  0.0000000000000000e+00  0.0000000000000000e+00  0.0000000000000000e+00  0.0000000000000000e+00  1.0000000000000000e+01  1.0000000000000000e+01  7.7997741551406570e+00  3.9611498951084094e+00  4.6958643720232068e-01  9.2283193618105788e+00  1.2089267795417415e+00  1.8186276688507226e+00  1.2345691338706175e+00  1.1267816615459771e+00  4.6611926979710316e-01  2.4591578368650220e+00  7.6724542054613956e+00  6.3900599128505702e+00  8.5607656116977839e+00  6.2078553614822205e+00  1.6841771693667025e+00  7.7623394244600314e+00  5.3516227808878414e+00  7.6802037989046408e+00  6.4576474379240967e+00  1.5965175188658409e+00  8.3645482113205496e+00  7.1524226735159697e+00  1.9277581040488541e+00  7.0844737016598049e+00  2.5719793764334788e+00  5.3174094646855314e+00  1.5221599855170518e+00  2.4808674308895990e+00  2.8672999250504536e+00  7.0584314329314717e+00  3.8198102189469765e+00  8.5871630486163486e+00  8.5746235288122623e+00  2.9939381829401994e+00  6.2413033624412675e+00  3.1454581031539330e+00  3.4373989174857451e+00  4.8018382267930511e+00  5.9515138483213779e+00  8.6793733533852055e+00  6.4979942284304739e+00  3.5012215774533657e+00  4.0915808573736312e-01  5.5193299009544630e+00  4.7052088305466953e+00  4.5213215928207644e+00  2.2347480526746915e+00  3.3477602382609764e+00  5.8881341456403433e+00  3.2356785443741023e+00  7.6483415637956682e+00  4.3931068595178813e+00  7.3007290763536385e+00  6.6695674116915962e+00  1.9987700665707135e+00  5.6163560539427531e+00  1.0419750853619054e+00  3.1751150365838854e-01  7.7290152930438172e+00  2.0338946017936324e+00  5.8053456299767889e+00  4.0196860844994670e-01  6.4727525131533499e+00  4.4946972656593234e+00  5.3369501839403153e+00  4.8373073493888885e+00  2.0527564253221700e+00  4.8445323083027443e+00  3.3425352858580895e+00  3.9311893647012157e+00  1.1413154468406110e+00  1.0340774902891328e+00  7.1226839919414449e+00  6.5791814107768580e+00  1.7121066488585170e+00  1.4503901236755674e+00  5.5788385699308121e+00  5.2051277084331371e+00  2.6319458447309687e+00  9.7366922639326858e-01  8.3550792867850032e-01  2.5106481036231352e+00  4.8085989045431115e+00  6.6112994368370996e+00  6.5004897168273086e+00  8.6845436212086629e+00  9.4351871705137658e+00  2.0581251664531646e+00  8.7029638112364474e+00  9.3432242362605766e+00  8.2244200887151528e+00  8.3853009579595756e+00  3.1221890596910268e-01  3.5495096382785363e-01  8.2688339778345787e-01  3.1462463966733374e+00  7.6684469635082519e-01  3.9027279182967639e-01  3.4593952711302534e-01  6.6566659879241663e-01  6.5880378057369826e-01  9.3538264189257205e+00  2.9003789901320345e+00  1.6321408553678216e+00  6.3267057468325110e+00  3.9012768248487495e+00  4.3983624035976723e+00  3.4598780805794345e+00  8.8800023943638995e-01  5.9601675494242023e+00  4.9112258299824276e+00  2.4577659337179023e+00  2.7111459184977096e+00  2.9918971379813786e-01  7.3875023893482696e+00  9.3694741985419991e+00  9.4379772099296968e+00  9.2495137011727824e+00  1.8483314720992037e+00  2.0876831386492944e+00  1.5777152114929425e+00  5.5573675969672207e+00  8.4708621274248799e+00  2.7181025433128219e+00  6.0026953857203988e+00  5.5193777797216184e+00  3.4944163010381093e+00  6.8704987152665735e+00  3.4040068646248272e+00  1.4443750253356749e+00  8.4044819440902305e+00  2.7857155114711847e+00  8.6776555582499704e+00  6.5813061237154380e-01  9.4396378159950558e+00  2.5533774738723486e-01  1.9089174596222827e+00  8.0162149310303015e+00  7.6167779962048385e+00  7.5423310041997134e+00  3.9694574897699408e+00  8.1323933124791636e-01  2.4895811939979465e-01  8.8071334930695055e+00  9.6073478616798624e+00  2.8063879384269028e+00  5.9544685710120397e+00  7.1867053842020248e+00  6.6627898814384654e+00  9.6071519230392184e+00  8.8717935195906588e+00  5.7981906553662297e+00  4.9547115830242570e+00  2.2358166142072591e+00  9.3381215060194289e-01  7.9540497709344438e-01  1.2917312236669498e+00  9.6068620186553417e+00  2.3859036616673965e-01  2.3886956577747789e-01  9.6073563115035103e+00  9.6054208256272400e+00  4.6046943065267323e+00  3.0682263297914447e-01  9.6049816589852970e+00  8.2583104322016201e+00  7.5059993145657469e+00  4.8714856875363406e+00  5.2651545250727985e+00  8.1252357883243214e+00  6.3653595266026377e+00  6.1133959858682978e+00  4.2932270387439058e+00  4.7213269927725374e+00  2.4893533323811198e-01  1.2099362403552980e+00  8.2186241467003143e+00  3.0801811940502675e+00  3.5379263793786335e+00  2.0783685001562975e+00  4.2575859619635983e+00  5.2673850530633386e+00  1.9413792986186598e+00  2.8998461476254813e+00  2.5061850086490862e+00  3.2011662754689034e+00  7.4804117590646984e+00  6.6832049215326670e+00  8.9293391061269425e+00  4.3137197050987073e+00  1.9165753400753398e+00  7.3544236705604049e-01  2.8596605766462200e+00  8.3953281213643631e+00  9.0169315829484660e+00  3.1754530387087138e-01  2.8192397212467751e-01  7.4079300396521113e+00  8.1787412813252232e+00  3.2196915744257919e+00  8.1042523285333790e+00  3.6589885827787789e+00  5.6790449850361018e+00  7.2838196238988200e+00  2.2630093958175199e+00  1.7574267773899210e+00  4.0499579703821302e+00  4.2295484317872054e+00  3.9587224161521308e+00  5.0240044094134237e+00  1.7484867131133965e+00  1.3847719639803910e+00  1.5262257562580084e+00  1.4085189621019638e+00  1.7829728847837114e+00  1.7105042764241993e+00  3.9063089210587276e+00  4.2684364512761208e+00  3.3671538440708404e+00  7.0342919975577081e+00  5.6342595384345673e+00  1.2967727464865531e+00  1.7586474656181312e+00  8.4836312376714211e+00  3.6088220550120864e+00  6.5226735172334402e+00  7.2728814585598505e+00  6.6506812835217595e+00  2.2357927218083375e+00  5.4132382320134971e+00  2.8443737429226883e+00  2.8657036235330584e+00  5.1011658308016044e+00  4.3260568683280081e+00  4.9077306174387276e+00  5.3656629322576395e+00  3.8849479153864470e+00  2.5207608387157578e+00  2.3708021540714133e+00  8.9194238781100097e+00  9.6207498028041041e+00  5.9792515173375769e+00  3.3544070339780518e-01  3.5436765549093550e+00  6.7539190690583544e+00  2.7369652056038523e+00  8.9576771448501944e+00  2.2768130846298060e+00  5.8850324982563524e+00  3.1855956614474041e+00  2.1932085548603868e+00  9.5737868984921448e+00  3.9310234426874979e-01  5.0568016354057779e+00  7.7534505066425137e+00  9.2695251541293349e+00  2.3800125273525996e-01  8.7227631073444289e+00  3.3633838205142204e+00  2.6933925050861949e+00  1.2369539085824082e+00  3.0010475989279356e-01  5.6885929093718639e+00  7.9644550817912108e-01  1.2979153446825811e+00  1.3240939198646233e+00  4.4603411982297079e+00  4.4691454052618278e+00  8.1251249987333498e+00  7.9760192611907357e+00  5.6079458029918827e+00  1.0000000000000000e+01  2.2931020734231620e+00  7.2865918832829657e-01  7.3107337729247757e+00  2.9167073885703600e+00  2.5051857513638152e+00  3.9335631506022133e+00  1.4280351699743628e+00  1.2063245051111342e+00  7.4678012540203182e+00  8.3211632671572904e+00  1.8081535397552955e+00  1.7313514758538351e+00  5.9544847297381436e+00  2.4401173548800488e+00  5.1383858090651655e+00  2.3106723867627670e+00  3.5708257642540873e+00  3.2711137164802495e+00  3.9000884136208507e+00  1.0000000000000000e+01  9.1692133288331537e+00  7.2080261900677201e+00  6.8025273630743204e+00  5.5748115909239315e-01  8.1436703626831939e+00  7.5366741717795582e+00  5.8465669346209665e+00  4.1476905152811989e+00  1.2061815058832066e+00  9.6007273358612188e+00  3.4457361755549898e+00  3.1043641855278707e+00  1.0871652290059755e+00  7.1074844919234992e-01  6.7092349083213305e+00  7.7128415557555838e+00  3.3022929187197509e+00  4.4629439777167015e+00  5.1373208630826737e+00  5.2005153627606537e+00  4.8974500755446932e+00  1.4324546502050275e+00  7.5112067923382018e+00  0.0000000000000000e+00  1.3307403485814784e+00  1.6227120811142584e+00  3.7525703518071110e+00  2.2917242791701811e+00  2.7117726660473078e+00  9.0262551367261921e+00  6.5091744763676047e+00  6.7898246718127959e+00  3.8725947105924270e+00  2.6945703130714588e-01  8.0958685146235858e+00  3.6561488381680660e+00  4.1676063976253896e+00  4.1943287144225918e+00  1.0000000000000000e+01  7.9102325707363326e+00  7.4336577519166402e+00  8.0082675234327816e+00  2.5984263037807058e+00  9.6233716343245881e+00  9.0593876428262199e+00  9.5613984688151330e+00  0.0000000000000000e+00  9.6233446865796743e+00  3.6927298556141990e+00  9.2318745141146996e-01  1.2044668090933548e+00  5.9885575748119502e+00  6.0120772022397739e+00  6.2818543231581687e+00  6.1853254582638346e+00  9.5827073383110388e+00  8.8918042011523379e+00  5.2004870093543145e+00  4.7513208021350728e+00  5.9541683396920986e-01  3.1878200787991875e+00  4.6665806123073184e+00  3.0006315660461702e+00  2.0472168340934651e+00  8.6743549411156795e-01  1.2665027790545382e+00  8.3852175955574337e-01  2.7498433504040150e+00  8.1364845234121894e+00  1.5014623967518930e+00  6.5065942573166575e+00  0.0000000000000000e+00  1.7899393303076188e+00  9.5937958968218329e+00  4.6985437432010208e-01  6.2265231070777638e+00  4.5558716958796825e+00  2.5411655820586545e+00  5.4028048125182808e+00  4.5755807868188150e+00  3.9824838503003015e+00  4.2821647832542524e+00  6.7450295834598943e+00  9.6055265825131126e+00  7.5583228099559696e-01  8.8233222364381341e+00  4.6432132811668012e+00  9.6149622855475663e+00  5.0694242555243338e+00  6.1478613934256279e+00  4.3080778565288149e+00  1.6812906050856178e+00  3.8301965469882320e+00  1.0000000000000000e+01  4.6804170676654051e+00  8.5249988564652934e-01  5.8883237617067401e+00  1.0722441423803275e+00  3.6573487960566906e+00  8.8130763434072055e+00  7.0253516757248189e+00  9.5153351254551366e-01  8.7093143341970791e-01  2.6816837674409921e+00  7.1240005955437480e-01  1.6701517944753939e+00  1.9825469525785104e+00  1.8139658538117034e+00  2.1916652068387856e+00  2.1006931288696253e+00  9.6054507933930662e+00  1.0000000000000000e+01  1.0593905419953515e+00  4.6927822153525041e+00  7.7633501446278590e+00  6.9108959873160289e+00  6.5748720716740925e+00  7.2565734772655306e+00  9.0905933158211329e+00  3.3627567866540367e+00  8.5376851033839802e+00  3.1195791112362001e+00  3.3531125876920642e+00  5.6181115167306412e+00  8.9550129609082898e+00  5.0042731437372368e+00  2.5522688305873538e+00  7.9692665004154142e+00  3.6424078466342231e+00  5.1710486715423070e+00  8.0143282141663370e+00  7.8545063638816224e+00  4.6043251857347789e+00  0.0000000000000000e+00  8.9764688567979061e+00  0.0000000000000000e+00  7.7370307299382937e+00  3.9707880391866071e+00  2.2415173265534492e+00  2.2603812585203902e+00  2.2974417403533072e+00  6.1884163759946658e+00  3.5971647476577480e+00  7.3873895375356033e+00  1.0032094011472230e+00  3.2559384419368929e+00  8.2718378136489541e+00  7.1199983596012668e+00  1.0417810793191291e+00  3.6095508914462937e+00  3.6583246087775123e+00  4.5516558167209986e+00  8.6793458951074491e+00  7.4703017213446170e+00  6.3084008660172248e+00  5.7128435962825774e+00  8.2002110812755316e+00  9.2311074728449789e+00  9.6229295250815188e+00  7.0187453490038632e+00  5.7303452118063647e-01  4.2837218405857636e+00  2.6154231149630286e-01  4.9302504325422980e+00  9.6229932451562785e+00  1.0000000000000000e+01  1.0000000000000000e+01  8.8717059613654374e+00  2.7856197939765552e+00  8.1249990640990610e+00  0.0000000000000000e+00  2.3803563497610133e-01  4.6045240509783048e+00  0.0000000000000000e+00  1.0000000000000000e+01  2.2355964576375631e+00  8.8716806196176776e+00  1.0000000000000000e+01  6.6622862162147403e+00  5.9541760382672173e+00  1.0000000000000000e+01  1.0000000000000000e+01  1.0000000000000000e+01  0.0000000000000000e+00  0.0000000000000000e+00  0.0000000000000000e+00  3.9694670427985854e+00  0.0000000000000000e+00  2.7853107586214820e+00  7.3873897325500257e+00  0.0000000000000000e+00  7.1732691791669545e-01  7.1726231957409503e-01  0.0000000000000000e+00  1.7106783037056750e+00  5.2670683015247599e+00  0.0000000000000000e+00  6.6625222476967512e+00  1.0000000000000000e+01  1.0000000000000000e+01  9.6233507624971644e+00  0.0000000000000000e+00  5.2669803719383772e+00  0.0000000000000000e+00  3.9696872288135885e+00  1.0000000000000000e+01  1.0000000000000000e+01  1.8361837611996692e+00  7.1252729617325503e+00  2.0678251080747420e-01  5.5474464334346045e+00  5.1578424542282173e+00  7.6217775006161625e+00  3.2128380000935590e+00  1.7205588247166723e+00  1.9197442799355640e+00  1.5318989264208596e+00  8.8081440679626244e+00  1.3307428347859054e+00  2.2442723726799629e-01  1.1291682845365989e+00  8.3097664628575849e+00  4.8382909396383772e-01  6.0344522739231909e-01  2.3409034721896646e-01  4.8719245563906793e-01  3.5731752242897569e-01  5.3681598529586261e-01  4.9905801336162242e-01  8.8451031308567725e+00  8.4359757354240497e+00  1.8283208329676945e+00  4.9657162048360313e+00  9.5840838275701739e+00  7.0492515862953176e-01  5.8052585291758874e+00  3.5249592468940807e+00  1.0697092762060756e+00  3.2417198748669782e+00  2.3134786725548477e+00  2.9303245506904130e+00  7.2201467155539865e+00  9.0319752213166744e+00  1.6679470915267112e+00  8.6244815192841600e+00  8.2896169537775197e+00  6.1789136083977416e+00  2.8078512722784548e+00  4.0927446254144044e+00  6.4606130570570173e+00  2.0881753060401533e+00  4.7026343127431494e+00  8.8096770799527331e+00  2.2951099083866859e+00  5.6399192809728502e+00  7.9223814688390748e+00  7.3151407735632956e+00  7.8546080367029552e+00  2.2939009950322672e-01  2.0674642573661983e+00  1.8169444967435961e+00  1.5829792055706091e+00  1.0220479103132467e+00  1.3005061089941572e+00  3.4260292111464681e+00  4.5242890190064955e+00  4.1561845346348738e+00  7.3578446654804699e+00  9.2509671937961464e+00  8.9833095119750102e+00  6.9806179205400873e+00  6.7812757174589926e+00  3.2815076373100136e+00  4.5548563037507641e+00  9.3403876716202705e-01  1.0806430862780589e+00  1.4431492577937706e+00  1.2908639716845947e+00  1.5623852580757798e+00  1.4799935857377260e+00  1.3466049308953840e+00  5.7663092714833164e+00  5.6801589059130579e+00  3.1818141061528249e+00  5.2351831938784130e+00  8.7681695536135802e+00  2.7288654030897255e+00  2.3374611804592575e+00  9.6646812325522653e+00  8.3048213839820644e+00  8.5197276921449028e+00  4.7426259980962024e+00  6.9965927241220138e-01  5.8429757276261016e+00  4.1304148515883279e+00  2.6862123247266543e+00  6.4375118380521625e+00  7.4168207584962094e+00  1.3704975797288712e+00  8.1058069685540080e+00  7.8143504481776818e+00  7.3470185341186216e+00  9.6089394432998407e+00  8.5067415486308668e+00  8.6384073150336036e+00  8.9978940218587891e+00  8.1708103409369510e+00  2.4934470484643119e+00  8.7636445533954133e-01  1.2882154990553634e+00  9.6212912422287680e+00  2.5768670324201222e+00  1.2986168579303969e+00  5.8806160679050778e+00  6.4945687323788466e+00  3.7521622034052062e+00  2.9752051234133075e+00  4.0501908781072506e+00  1.7587828388207813e+00  1.8680757964418275e+00  1.6953438942792189e+00  1.8984726246163650e-01  2.4363890694023951e+00  7.8443095385257742e+00  7.4123547650739958e+00  1.1068805215309583e+00  9.0732814245548621e+00  7.4708214501559436e+00  8.1895702661329839e+00  6.8580869430672244e+00  5.6219981888101458e+00  1.3286965470285292e+00  1.1329420037353410e+00  8.9387345499250148e-01  9.6174778536185757e-01  5.2682710519142972e+00  7.28951