<?xml version="1.0"?>
<VTKFile type="UnstructuredGrid"  version="0.1"  >
<UnstructuredGrid>
<Piece  NumberOfPoints="2513" NumberOfCells="4852">
<Points>
<DataArray  type="Float64"  NumberOfComponents="3"  format="ascii">-1 1 0  -1 -1 0  1 -1 0  1 1 0  0 -1 0  1 0 0  0 1 0  -1 0 0  0 0 0  -1 -0.5 0  -0.5 -1 0  -0.5 1 0  -1 0.5 0  1 -0.5 0  0.5 -1 0  1 0.5 0  0.5 1 0  0.4166666666666666 -0.4166666666666667 0  -0.4166666666666667 0.4166666666666667 0  -0.25 -0.5 0  0.5 0.25 0  -0.4861111111111112 -0.06944444444444445 0  0.0732758620689655 0.507183908045977 0  -0.625 -0.625 0  0.625 0.625 0  0.7380952380952381 -0.25 0  -0.7099116161616161 0.2105429292929293 0  -0.25 0.7380952380952381 0  0.105392156862745 -0.6348039215686275 0  0.6770833333333334 -0.6770833333333333 0  -0.6770833333333334 0.6770833333333334 0  0.3472222222222222 -0.06944444444444446 0  -0.7264957264957265 -0.3044871794871795 0  0.3141940982507127 0.7297313660835709 0  0.02049587951122483 -0.3227479397556124 0  -0.2690972222222223 0.1475694444444444 0  0.3859500089908372 -0.7274430156831472 0  -0.2228477945123298 -0.1761765495248019 0  0.2182539682539683 0.1884920634920635 0  0.75 0.375 0  -0.145442219440968 -0.7602211097204841 0  0.7088913690476191 0.0427827380952381 0  -0.75 -1 0  -1 -0.75 0  1 0.75 0  0.75 1 0  -0.7439982703698937 -0.04614153195464455 0  -0.4609235096577606 -0.3356498099556895 0  0.4063134471431929 0.4895621842856023 0  0.25 -1 0  -0.25 -1 0  -0.75 1 0  0.75 -1 0  -1 -0.25 0  -1 0.25 0  1 -0.25 0  -0.25 1 0  1 -0.75 0  -1 0.75 0  0.25 1 0  1 0.25 0  -0.4041423272138783 -0.7597141090712928 0  0.06500839607911253 0.7578103030529481 0  -0.1572801182352047 0.3838997021864289 0  -0.6528005242053915 0.4409494757946086 0  -0.4930160984848485 0.1544744318181818 0  -0.4732142857142858 0.7752976190476191 0  0.6398809523809523 -0.4538690476190476 0  0.5166054117396399 -0.2161233620965164 0  -0.002273787244753427 0.2232363985975174 0  0.1500564496765022 -0.1524955293952667 0  0.2016720420046758 -0.4410343282803009 0  -0.08495178036419618 0.6274139771124571 0  -0.8367311471133162 0.3642591720794645 0  -0.8333333333333334 -0.625 0  -0.594323836800685 -0.8231079456002283 0  -0.4466957714776065 -0.5349126855671806 0  0.8125 0.5625 0  0.78125 0.78125 0  0.5091392650016769 0.7947130883338923 0  0.125 -0.8382681931833136 0  -0.8184523809523809 -0.8184523809523809 0  -0.07781530426104531 -0.5819319697006881 0  0.5085055196703295 0.04967610411902112 0  0.2918471072074933 -0.276017202318847 0  0.5120763537765269 -0.5898771553229597 0  0.625 -0.8585349462365591 0  0.8158532234335381 -0.8158532234335381 0  -0.5198088446315396 0.5739411553684605 0  -0.8585349462365591 0.625 0  -0.8150493805516597 0.8156205699829586 0  0.8585349462365591 -0.625 0  -0.2688268348649726 0.5439331383603209 0  0.8242100426758139 -0.4436043596336612 0  0.5833756314287952 0.4479378157143976 0  0.8690476190476191 -0.125 0  -0.125 0.8690476190476191 0  -0.8692745600729823 0.125 0  0.8696725120759167 0.125 0  -0.625 0.8711516477451908 0  0.2339522463269718 0.3879558377955778 0  0.2453709502295031 0.5655822922838026 0  0.1730610651637797 0.02021709580868947 0  0.3245402594056757 -0.5644672020485209 0  -0.7291666666666666 -0.4816595441595442 0  -1 -0.375 0  -0.5811140848639904 -0.2127276307675001 0  0.673332592838314 0.2158348143233718 0  0.375 1 0  -0.5714768890989919 0.2985103444040069 0  -1 -0.125 0  -0.8453692574786325 -0.1875 0  -0.3144549134065865 -0.02408675326008025 0  -0.2898414972096258 -0.3336092734780093 0  -0.1075052092206287 -0.4224330421314983 0  -0.05043970703604117 -0.1652278959397459 0  0.6459672950297897 -0.1113415301525317 0  0.4645210271029513 0.6398480556579343 0  0.3512863754411909 0.0937979496253573 0  -0.6063160985568274 0.03891469652249891 0  -0.3428819444444445 0.8690476190476191 0  0.625 1 0  -0.1602164796159982 0.02697860906625157 0  0.04648110064133829 -0.4808416424239687 0  1 0.875 0  -0.3836102479201657 0.6484936449177356 0  -0.3776011723096096 0.263078478984336 0  -0.6024978259969829 -0.3949628096211138 0  0.125 1 0  0.2010781308272777 0.8456221018461906 0  0.2822509696388829 -0.845902544691141 0  -0.3285533674953515 -0.6289773550938936 0  0.3461306793221754 0.278777492464833 0  0.4737475672408696 -0.8508448959534423 0  0.2384632828836344 -0.7029523187242811 0  -0.004777287059791593 0.3759269695907358 0  -0.8499735021850066 -0.3912320205328522 0  0.1222536293721587 0.2963971539625205 0  -0.3769456520999688 -0.203572526805711 0  -0.2749617205755651 -0.8464290792698902 0  0.004805888512766143 -0.747174355248311 0  -0.125 -1 0  -0.06001061822252458 -0.8724007765244854 0  0.875 0.4375 0  0.854421179608893 0.271342359217786 0  0.875 1 0  -0.1499861095763589 0.2358309656934888 0  0.3381943639137225 0.8663061796405532 0  -0.7853090110442228 0.4998412775277108 0  0.7398165998560814 -0.5535192694951373 0  0.1580042122341573 -0.3100246140259917 0  -0.7291666666666667 -0.7142857142857142 0  -0.375 -1 0  0.6483368386154684 0.8514905990110488 0  -0.1295370103291928 -0.2826118305021242 0  0.07458201853700455 0.1123894386563915 0  0.6146465857036327 -0.3161203659316075 0  0.5551898493894731 -0.740296118159085 0  0.375 -1 0  0.482702798370208 -0.084133350091034 0  0.87890625 0.68359375 0  -0.05917195534525846 0.4971092425697621 0  0.1260710309213975 0.6343750312956699 0  0.8690476190476191 -0.3077066815262848 0  -0.2912010232560567 0.3668168386732139 0  -0.875 1 0  -1 0.875 0  1 -0.875 0  0.875 -1 0  -0.8689564281364567 -0.006189266075306407 0  -0.7449425635110547 0.08458938160051771 0  -0.7150266761936593 -0.1739444581417552 0  -0.5260034831318311 -0.711099823962112 0  -0.4724626808827322 -0.871722230709409 0  0.4734436795977052 0.377714794132168 0  -0.875 -1 0  -1 -0.875 0  0.6927189078571988 0.5156567235715964 0  -0.3742497615796874 -0.4296005251260107 0  -0.1969436423297711 -0.6387157229772615 0  -0.6179496409766825 -0.08933356056510935 0  -0.424405057115988 0.04452428810878029 0  -0.08479048335844169 0.1279607007132633 0  0.003830300099055113 0.8712085230656206 0  0.8748778838820267 -1.379218479898026e-05 0  -0.375 1 0  -0.625 1 0  1 0.125 0  -0.125 1 0  1 -0.375 0  1 -0.125 0  1 -0.625 0  0.625 -1 0  0.125 -1 0  -0.625 -1 0  -1 -0.625 0  -1 0.125 0  -1 0.375 0  -1 0.625 0  1 0.375 0  1 0.625 0  0.6325660748712082 0.3335187599557389 0  -0.06420945895056573 0.7549874027425891 0  -0.8769015540914771 0.2478802253893416 0  0.871875 0.871875 0  -0.6868091492840067 0.3270978624973681 0  -0.5363597469565949 0.412994850055505 0  -0.6803734992638302 0.5574295000651103 0  -0.7076253581162534 -0.8803439094224437 0  -0.8778089002295137 -0.5106896447504627 0  -0.3860184984222981 0.530566778071246 0  0.6109900617121508 0.1128453077697081 0  0.3896945134930274 -0.1915382873255086 0  0.7605656944697778 -0.06822134873122943 0  0.3576151269893478 0.5948388411612135 0  -0.5689902680792265 -0.5143596830118065 0  0.6262446286847614 -0.5735657901943212 0  0.2030558252325225 -0.5625263842513452 0  0.6123273142928579 0.7407533260723429 0  0.4016460890123554 -0.3042863223111857 0  -0.59039693199147 0.7578418819188018 0  0.7276932493917544 -0.3705808024528924 0  0.5222536818742854 -0.4713886230400014 0  -0.5101986527137737 0.8848365765607674 0  0.510560172809238 0.5356013299918891 0  -0.3603569195756083 0.75823710606415 0  0.1967279277813232 0.728226870058472 0  -0.6086880986371127 0.1545624071548516 0  -0.38105366729386 0.1511189987807864 0  -0.2944659463671584 -0.7359061804869591 0  0.5060729154966499 -0.3475227845833823 0  -0.09281616240412746 -0.06197858250969457 0  0.7649739583333334 0.6673177083333334 0  0.7628906249999999 0.890234375 0  -0.2666864184909611 0.2585504071132311 0  0.3635064892129658 0.3878003602709461 0  -0.2339409722222222 0.8901937905844155 0  -0.1718792125974916 -0.8957733325456778 0  0.1001768566329531 0.4023510017391879 0  0.3120260172693757 -0.4540546875576884 0  0.7804062804433681 0.1896628610854537 0  0.4087715451998049 0.187961780041608 0  -0.1584963477271457 0.5451611892421655 0  -0.8926817849258324 0.463022006336401 0  0.2338091473445219 -0.07576267331277289 0  0.08171112182813692 -0.2349087687359925 0  0.04635385178956847 -0.1044635073718474 0  -0.4377391632114205 -0.6448874471423088 0  -0.1907678351227189 0.6480215912813945 0  0.300605946475244 0.4741444604171038 0  -0.2145033720757486 -0.06751709909419711 0  0.6069191921170397 -0.005492331448357812 0  0.0214718770761248 0.6032397936031719 0  0.5476675683364878 0.8992752415326501 0  0.4387475014316537 0.9093708953002239 0  -0.4932997685306436 -0.4381009159993523 0  0.2515197695339056 -0.1791673369138964 0  -0.7291666666666667 -0.6088789682539681 0  -0.9166666666666667 -0.6875 0  0.620579540363709 -0.2122431523583302 0  -0.484950136419973 0.6719440339397442 0  0.2857044415400258 0.0137589173127316 0  -0.8945708364098356 -0.288306105327986 0  0.4043102720140535 0.7842914560451557 0  0.04123256238752064 -0.9026968245801402 0  0.2003676884403109 -0.9091888601740487 0  0.1068775558538842 -0.7373377130403223 0  -0.4804566783514427 -0.1763307203045643 0  0.108286342087769 -0.3993789328997278 0  -0.191883080105361 -0.3640821726430649 0  -0.07025064492006244 0.2984876656890053 0  -0.7039324641409584 0.788312126296613 0  -0.7311286585775438 0.8932502354831682 0  0.5171409396884947 0.1503852691889257 0  0.4229392823658633 -0.003216522184234835 0  -0.5621736087218259 -0.919558629836806 0  -0.626474064879544 -0.7266572613636506 0  0.2446828746617422 0.2867616783302419 0  0.1759429608742923 0.4776611759306416 0  -0.3468240303741654 -0.5260416435617549 0  -0.7465808808425306 0.4069574477998361 0  -0.7819962170660292 0.2802441065650652 0  -0.3742623214119594 -0.8547800509641984 0  0.1014498009713561 0.8506721983266377 0  0.4285217620918213 -0.5230190595570253 0  0.4091738370487775 -0.6256346204225141 0  0.78125 0.46875 0  0.90625 0.53125 0  -0.4791801348852565 0.2553992655702126 0  0.7843318610782772 -0.7086046956885941 0  0.8909728264971901 -0.7355183796514634 0  0.7041908166528879 -0.7830649143180282 0  0.7311821352
[...]
<PointData  Scalars="velocity-2"> 
<DataArray  type="Float64"  Name="velocity-2"  format="ascii">0.0000000000000000e+00  0.0000000000000000e+00  1.0000000000000000e+01  1.0000000000000000e+01  6.1373820231439780e+00  1.0000000000000000e+01  6.1368806428135807e+00  0.0000000000000000e+00  6.1357267748508235e+00  0.0000000000000000e+00  1.8288886301019101e+00  1.8301677540805128e+00  0.0000000000000000e+00  1.0000000000000000e+01  8.8209272700363108e+00  1.0000000000000000e+01  8.8209799091992167e+00  8.5577440658365447e+00  2.4294689548098187e+00  3.8547562180713530e+00  8.8193918830003462e+00  1.9251789114822242e+00  6.7228017419505539e+00  1.1205565868373148e+00  9.1472661467781435e+00  9.4122625829983466e+00  7.5637132587693690e-01  3.8549281482937228e+00  6.9594756868436836e+00  9.2718745341461375e+00  8.8721726327775241e-01  8.2994826731453095e+00  6.9561720650431103e-01  8.1587592067334889e+00  6.3072883465210170e+00  3.6800987422724907e+00  8.4493093214163224e+00  4.1061154052610878e+00  7.6794438782094323e+00  9.4396472128058608e+00  4.8298772847710101e+00  9.3459479012297990e+00  6.1358824668607648e-01  0.0000000000000000e+00  1.0000000000000000e+01  9.4397132740543235e+00  6.3420787403341350e-01  2.1007122462258510e+00  8.5227294232739688e+00  7.8533305497657624e+00  3.8546967201381204e+00  6.1572021669306265e-01  9.4397577688761451e+00  0.0000000000000000e+00  0.0000000000000000e+00  1.0000000000000000e+01  3.8554291091973241e+00  1.0000000000000000e+01  0.0000000000000000e+00  7.8522700300790120e+00  1.0000000000000000e+01  2.5261948374189629e+00  6.6601934763499449e+00  4.7195014445812946e+00  9.9024428233924688e-01  1.8770767845048235e+00  2.0133878596593990e+00  9.1843346074160568e+00  8.8660481740650727e+00  6.1171334142458971e+00  7.2666869226246433e+00  7.5860283211214750e+00  5.3891449969977643e+00  3.6000743988417822e-01  3.6858250587737018e-01  1.2753837514778266e+00  2.2034281173155184e+00  9.5807698153262617e+00  9.5104772956058206e+00  8.8463879597788093e+00  7.0970976610006655e+00  4.0843611311968236e-01  5.4546939583645013e+00  8.8441271537651414e+00  8.0566886310137207e+00  8.8535646517014452e+00  9.1477311069426879e+00  9.5884109438320877e+00  1.7044606803049442e+00  3.0516349889628386e-01  4.1763167370094051e-01  9.6839186530262040e+00  3.6834937887682382e+00  9.6073040356225992e+00  9.0440961705100236e+00  9.7077571433902854e+00  5.0207925584107089e+00  2.7889258658626759e-01  9.7091267808674946e+00  1.1195290829334767e+00  7.7662296975759482e+00  7.8281164107536547e+00  7.4126818841263660e+00  8.2038080155036379e+00  6.8625201615172615e-01  0.0000000000000000e+00  1.3459901808881747e+00  9.2630610008035266e+00  8.4113262682584633e+00  1.3972488590829970e+00  0.0000000000000000e+00  3.3818126637609447e-01  3.2735198965660586e+00  3.4942519029810066e+00  5.1840999295050523e+00  5.7008485345436952e+00  9.1988211672354190e+00  8.7130197833813288e+00  8.3159678132573234e+00  1.2110681343743845e+00  3.0285227299135955e+00  9.1478614662034410e+00  4.6926112488727725e+00  6.5163704201532076e+00  1.0000000000000000e+01  2.6894885558087864e+00  2.7391427509481279e+00  1.2321400005894192e+00  7.0998983374976410e+00  7.5808689434842318e+00  8.0127989312652410e+00  3.1522130672128443e+00  8.2932870911965608e+00  8.7418201485254095e+00  7.7900243620533907e+00  6.0963863370307889e+00  3.2635302106331460e-01  7.0774700218441922e+00  2.7431058717241026e+00  3.6267203047412062e+00  6.1779210576639079e+00  5.0209080056381232e+00  5.6138859547721927e+00  9.7208729050308307e+00  9.6751850225399032e+00  9.7210164239461285e+00  4.7877963566952069e+00  8.2617535835565796e+00  5.0349511596860297e-01  9.4164181662730542e+00  7.3167153085156400e+00  6.8640276110536624e-01  2.7592736819356514e+00  9.2041567502135582e+00  4.9789258024736052e+00  6.7320384155123456e+00  9.1225383855885269e+00  8.9714794299710459e+00  8.4092929943856110e+00  8.7690288828368654e+00  9.7292824898140982e+00  5.6217563733531373e+00  7.1047752511418887e+00  9.7075553580420522e+00  3.4812982924133533e+00  2.6470228181225441e-01  0.0000000000000000e+00  1.0000000000000000e+01  9.7210561044756183e+00  2.8015780714720462e-01  6.3191375441210396e-01  7.3771122948627188e-01  1.6656270498431700e+00  2.0197645675278979e+00  8.7408091276453668e+00  2.6495418955541900e-01  0.0000000000000000e+00  9.3085748994938555e+00  2.7662021609102250e+00  4.3487808805048465e+00  1.1552638194166953e+00  2.3700787975957684e+00  5.3911589939959139e+00  6.1685278288106486e+00  9.7204411348699864e+00  2.7568116218143763e+00  1.1194883307639034e+00  1.0000000000000000e+01  5.0208180672182250e+00  1.0000000000000000e+01  1.0000000000000000e+01  1.0000000000000000e+01  9.1482304041213567e+00  7.1001428029372260e+00  1.1190345796115058e+00  0.0000000000000000e+00  0.0000000000000000e+00  0.0000000000000000e+00  0.0000000000000000e+00  1.0000000000000000e+01  1.0000000000000000e+01  9.1658844172973666e+00  5.5771969912853114e+00  2.6103147321361614e-01  9.7139602664932205e+00  8.4490020439137159e-01  1.6013478967144645e+00  8.7210300123410034e-01  7.6582217764089511e-01  2.5880556200686772e-01  2.6702160569821269e+00  9.1131551642395312e+00  8.4609805682093189e+00  9.4639082543800264e+00  8.3401072936251115e+00  1.4124532578717957e+00  9.1508469671826997e+00  7.5936792470434691e+00  9.1167876129752639e+00  8.5056495353375396e+00  1.2947107409219079e+00  9.3885541198461642e+00  8.8827652789948512e+00  1.7661989330358483e+00  8.8495882799841254e+00  2.8799651297271680e+00  7.5550506574418144e+00  1.1998206222532735e+00  2.7097203694197320e+00  3.4513373046584905e+00  8.8374791477245260e+00  5.3171910879100928e+00  9.4736404217868362e+00  9.4692820580206138e+00  3.7013022640491107e+00  8.3628384091077628e+00  4.0040400342939764e+00  4.5822036306407155e+00  6.9220334200538671e+00  8.1506552528964011e+00  9.5090346951764140e+00  8.5315708999330919e+00  4.7081234547552491e+00  2.2443764929575802e-01  7.7656836817052453e+00  6.7865110053995634e+00  6.5149972068481476e+00  2.2679728429586601e+00  4.4056212309252372e+00  8.0981192306550582e+00  4.1821033512419552e+00  9.1037798913726515e+00  6.3159950822517130e+00  8.9514799723975447e+00  8.6323506213173324e+00  1.8780936865682301e+00  7.8591389184268214e+00  6.8649997429943388e-01  1.7165629886104011e-01  9.1368298813668485e+00  1.9336946061347082e+00  8.0288089633094728e+00  2.2048757166840330e-01  8.5154772759865569e+00  6.4737060951877998e+00  7.5784320638748781e+00  6.9712101569016784e+00  1.9632759092186498e+00  6.9803814169274805e+00  4.3959108326510412e+00  5.5227447206270339e+00  7.7956346061342863e-01  6.7786800703141870e-01  8.8685567978569786e+00  8.5794614259402042e+00  1.4506150695909146e+00  1.1132275858819070e+00  7.8242797503589454e+00  7.4298061644161786e+00  2.9937328413170832e+00  6.2617218219960524e-01  5.1197052775651708e-01  2.7649446015377586e+00  6.9318118951908394e+00  8.5977676159032494e+00  8.5325519386878135e+00  9.5103666103701077e+00  9.7905463286842451e+00  1.9716863037451056e+00  9.5173585495559827e+00  9.7567915502448361e+00  9.3350395249957536e+00  9.3970784858093008e+00  1.6886191272368159e-01  1.9287219542790776e-01  5.0682419806268719e-01  4.0048964589057157e+00  4.6070665075988404e-01  2.1415583024437351e-01  1.8789383727078013e-01  3.8829204344630269e-01  3.8368814437010013e-01  9.7606250849915188e+00  3.5163081595241210e+00  1.3407542886795476e+00  8.4211906713227549e+00  5.4688631111406671e+00  6.3242717664955492e+00  4.6279868278856418e+00  5.5469081184412661e-01  8.1558906752138132e+00  7.0688810346757123e+00  2.6666572931360526e+00  3.1468791220467494e+00  1.6156020128519347e-01  8.9905434283293264e+00  9.7662937405676935e+00  9.7914958335304370e+00  9.7217293609830193e+00  1.6464154388696206e+00  2.0208210226975933e+00  1.2698759251477452e+00  7.8014220281912889e+00  9.4297656799841629e+00  3.1600617366443609e+00  8.1895939777764042e+00  7.7644050417270298e+00  4.6943462233867139e+00  8.7411859019784472e+00  4.5170446185968771e+00  1.1046086245642783e+00  9.4044228213584020e+00  3.2912445501509304e+00  9.5082001454877911e+00  3.8322005435405215e-01  9.7918098952610020e+00  1.3716275337039674e-01  1.7367690500365212e+00  9.2528500675157943e+00  9.0896874932641509e+00  9.0584725858558297e+00  5.5918882305917910e+00  4.9563525181125823e-01  1.3337841855931232e-01  9.5569117277344535e+00  9.8540221741062251e+00  3.3306272726487078e+00  8.1506431535321937e+00  8.8987267795437131e+00  8.6270984350366167e+00  9.8543752072812474e+00  9.5806804672926624e+00  8.0226686394075450e+00  7.1264366784019755e+00  2.2704206338019080e+00  5.9221815800195210e-01  4.8164695419405157e-01  9.3141424993587185e-01  9.8542072099622597e+00  1.2773757918204351e-01  1.2813562125377445e-01  9.8538797628449650e+00  9.8539009608976063e+00  6.6401330474398756e+00  1.6590864014610568e-01  9.8537040799594600e+00  9.3476734163094530e+00  9.0432114717241099e+00  7.0163433284988805e+00  7.4971157566387294e+00  9.2962237339744398e+00  8.4468988613848364e+00  8.2735339123374168e+00  6.1516874896782321e+00  6.8098036230789472e+00  1.3332194933325742e-01  8.4704638814327982e-01  9.3321627279851800e+00  3.8729898758944761e+00  4.7800784802643230e+00  2.0048810008402120e+00  6.0932784130743212e+00  7.4997591323951580e+00  1.7876767851319550e+00  3.5151458806713038e+00  2.7565131351410241e+00  4.1150045034634024e+00  9.0312556894086296e+00  8.6400359655242820e+00  9.6021445504223948e+00  6.1869657472267878e+00  1.7492041926907489e+00  4.3755502805472318e-01  3.4365198067660647e+00  9.4006546714134025e+00  9.6346577439909780e+00  1.7203248105158042e-01  1.5183806798270805e-01  9.0001159211495541e+00  9.3171271479894262e+00  4.1510438182002654e+00  9.2873004938970567e+00  5.0141195747573164e+00  7.9172070061644177e+00  8.9433173025605743e+00  2.3173147318568859e+00  1.5145222022129343e+00  5.7357207628252018e+00  6.0466700103269693e+00  5.5723312348388028e+00  7.2121678978288397e+00  1.5008830116016934e+00  1.0371455239046192e+00  1.2064419052213122e+00  1.0639663359027076e+00  1.5498297088222963e+00  1.4457930413274316e+00  5.4775302012756102e+00  6.1117405060603884e+00  4.4441230505621441e+00  8.8244100624956179e+00  7.8754045925954816e+00  9.3857495354418108e-01  1.5161166133169921e+00  9.4340527364452527e+00  4.9174338890478575e+00  8.5464127452245364e+00  8.9381898549670673e+00  8.6210555215046387e+00  2.2699301532498373e+00  7.6574071386167102e+00  3.4058309893028103e+00  3.4489592612299593e+00  7.3070977264549333e+00  6.2051471857174860e+00  7.0645335359602912e+00  7.6075208032032950e+00  5.4389450087792373e+00  2.7846316463149337e+00  2.5087151683474072e+00  9.5984994264661818e+00  9.8592200130069703e+00  8.1710006117957992e+00  1.8207338320676444e-01  4.7911601170538685e+00  8.6791233195541579e+00  3.1961356296702772e+00  9.6129267126286528e+00  2.3430939044422616e+00  8.0954955496156824e+00  4.0833198485034181e+00  2.1965705292917361e+00  9.8416427934463524e+00  2.1536147741333170e-01  7.2537385532270511e+00  9.1468142091678271e+00  9.7293478904236341e+00  1.2704335281631102e-01  9.5250296556320038e+00  4.4369727193773869e+00  3.1120981789784010e+00  8.7529181692675495e-01  1.6200838361081651e-01  7.9252444627084655e+00  4.8263215617421523e-01  9.3998426607726659e-01  9.6910599842421241e-01  6.4220587826618738e+00  6.4352278439159107e+00  9.2965408677021877e+00  9.2373889016771802e+00  7.8505239407643819e+00  1.0000000000000000e+01  2.3717219722934799e+00  4.3299648889070114e-01  8.9558854874478140e+00  3.5497921914570831e+00  2.7558484942208157e+00  5.5276800642056765e+00  1.0867802716366060e+00  8.4434250048195902e-01  9.0252614040192753e+00  9.3726570009305643e+00  1.5863710888570481e+00  1.4771587489419067e+00  8.1523538659182044e+00  2.6366994043895819e+00  7.3533345041937750e+00  2.4009288542974310e+00  4.8437079005899779e+00  4.2534712812221107e+00  5.4659386219751331e+00  1.0000000000000000e+01  9.6923147001952277e+00  8.9083917761437412e+00  8.7058520238910884e+00  3.1630353829918789e-01  9.3035139312277355e+00  9.0553677729888662e+00  8.0630327387920566e+00  5.9060678833762257e+00  8.4237421824688308e-01  9.8522340942889901e+00  4.5989802965063973e+00  3.9208263393381215e+00  7.2802206340044928e-01  4.2037785965504981e-01  8.6545291212389834e+00  9.1303751921184375e+00  4.3151766821174018e+00  6.4253500735938571e+00  7.3499936768897243e+00  7.4248828557322977e+00  7.0505083143734941e+00  1.0915405327250112e+00  9.0447993966780817e+00  0.0000000000000000e+00  9.7567950078782328e-01  1.3292403189527990e+00  5.1916580434050408e+00  2.3689003846884260e+00  3.1471576640057606e+00  9.6385448297916749e+00  8.5378844910026999e+00  8.6997169342498744e+00  5.4147179095763036e+00  1.4504672101318505e-01  9.2849505152749998e+00  5.0084324061836583e+00  5.9396442548700934e+00  5.9866504843408608e+00  1.0000000000000000e+01  9.2114774270364403e+00  9.0108108470179697e+00  9.2501377567214682e+00  2.9304136890601158e+00  9.8602317082332540e+00  9.6507151018703681e+00  9.8373182519337927e+00  0.0000000000000000e+00  9.8604686677791555e+00  5.0782413411494138e+00  5.8361879194569199e-01  8.4189623319400020e-01  8.1775428116195084e+00  8.1966404364130199e+00  8.3924735392931691e+00  8.3242690168495432e+00  9.8452221956261070e+00  9.5882376080929035e+00  7.4237421289738652e+00  6.8521011805329168e+00  3.4097662896455261e-01  4.0886485000036688e+00  6.7304150458347163e+00  3.7144395819981808e+00  1.9552292059314504e+00  5.3835744528714569e-01  9.0653191904524588e-01  5.1575040897597391e-01  3.2220524813114326e+00  9.3003473636778846e+00  1.1747797317544351e+00  8.5364248227995638e+00  0.0000000000000000e+00  1.5604472500051620e+00  9.8494323487251432e+00  2.6179923069202765e-01  8.3528835242653141e+00  6.5672352032140928e+00  2.8218224528448599e+00  7.6475736913661869e+00  6.5976185459826509e+00  5.6145690730869653e+00  6.1337631743332564e+00  8.6744800082334539e+00  9.8538119425024551e+00  4.5320983844901408e-01  9.5629926248371060e+00  6.6967051860793951e+00  9.8569856852988149e+00  7.2685238074958187e+00  8.2986940329091343e+00  6.1766245724281701e+00  1.4080486116290414e+00  5.3372271732775802e+00  1.0000000000000000e+01  6.7509164073496901e+00  5.2692259657382001e-01  8.0971215182619396e+00  7.1464883316352201e-01  5.0104144892117048e+00  9.5592045448273257e+00  8.8205627344055220e+00  6.0704029816304417e-01  5.4054118991842981e-01  3.0898544591192727e+00  4.2159734441551955e-01  1.3932135074755569e+00  1.8515990428034266e+00  1.5959047315219468e+00  2.1946348401098206e+00  2.0433119997450402e+00  9.8535344427127818e+00  1.0000000000000000e+01  7.0253821330890909e-01  6.7691173226481736e+00  9.1511501331778966e+00  8.7622411949288264e+00  8.5763470575523968e+00  8.9312616741715747e+00  9.6628679029158366e+00  4.4353514466137556e+00  9.4547287776646396e+00  3.9525315024079450e+00  4.4160025835187406e+00  7.8593525994291387e+00  9.6122491734455888e+00  7.1874977245205676e+00  2.8437457304652094e+00  9.2346787380396869e+00  4.9810653843703774e+00  7.3898179633388725e+00  9.2525565860413348e+00  9.1884158000178697e+00  6.6421296903672404e+00  0.0000000000000000e+00  9.6200626724825700e+00  0.0000000000000000e+00  9.1401728661965951e+00  5.5940793002662721e+00  2.2811442381832618e+00  2.3127024392716824e+00  2.3786365209034042e+00  8.3271239085149240e+00  4.8949964062415017e+00  8.9912971707203724e+00  6.5130253504389457e-01  4.2241575788245855e+00  9.3531746952553707e+00  8.8675262464628908e+00  6.8488395095173871e-01  4.9180687197896473e+00  5.0129429706004780e+00  6.5625659218344978e+00  9.5083616386379592e+00  9.0275499484714761e+00  8.4100822427263875e+00  7.9472280992671420e+00  9.3254091217200710e+00  9.7148136520688073e+00  9.8608068191755294e+00  8.8170824998084942e+00  3.2608394952798903e-01  6.1377135733594503e+00  1.4068198143817806e-01  7.0930708052893019e+00  9.8606453380021080e+00  1.0000000000000000e+01  1.0000000000000000e+01  9.5813480965295028e+00  3.2905232273375855e+00  9.2972273997941652e+00  0.0000000000000000e+00  1.2736337007699458e-01  6.6422962086453845e+00  0.0000000000000000e+00  1.0000000000000000e+01  2.2683827588505157e+00  9.5811745501166410e+00  1.0000000000000000e+01  8.6297107240598248e+00  8.1541785879376931e+00  1.0000000000000000e+01  1.0000000000000000e+01  1.0000000000000000e+01  0.0000000000000000e+00  0.0000000000000000e+00  0.0000000000000000e+00  5.5924383757377925e+00  0.0000000000000000e+00  3.2886234150036446e+00  8.9910569447095554e+00  0.0000000000000000e+00  4.2413189066147405e-01  4.2329407985254169e-01  0.0000000000000000e+00  1.4477085329055877e+00  7.5030443741353237e+00  0.0000000000000000e+00  8.6285734335302582e+00  1.0000000000000000e+01  1.0000000000000000e+01  9.8606688303124468e+00  0.0000000000000000e+00  7.5035053402864236e+00  0.0000000000000000e+00  5.5911088055172602e+00  1.0000000000000000e+01  1.0000000000000000e+01  1.6271620999737149e+00  8.8707327131170786e+00  1.1042456020330760e-01  7.7925498346551230e+00  7.3758376442751956e+00  9.0913328162191664e+00  4.1377059061279580e+00  1.4624515099762827e+00  1.7540374986583298e+00  1.2119442816463233e+00  9.5570037365672746e+00  9.7523168966067098e-01  1.2016215229904301e-01  7.6694419025645333e-01  9.3679828336242217e+00  2.6994798339935361e-01  3.4564598480782521e-01  1.2508421330468819e-01  2.7192337970065078e-01  1.9445982624410027e-01  3.0327564983409383e-01  2.7986769548396523e-01  9.5712636391379515e+00  9.4163753026841341e+00  1.6164552663804554e+00  7.1393721560598040e+00  9.8460980064479333e+00  4.1600823312310464e-01  8.0270853994761673e+00  4.7553946547744381e+00  7.1190316860610847e-01  4.1947334160753540e+00  2.4073614785172848e+00  3.5751248803876696e+00  8.9132365571824703e+00  9.6406520811246157e+00  1.3899521254015426e+00  9.4879276277926134e+00  9.3602849788808626e+00  8.3204645938308648e+00  3.3344661494192041e+00  5.8121896975705889e+00  8.5078277255863153e+00  2.0217061826260077e+00  6.7836493629433097e+00  9.5578773836095952e+00  2.3738007954455131e+00  7.8811292794748704e+00  9.2161630178665206e+00  8.9584356804695471e+00  9.1888055089787830e+00  1.2282399661708199e-01  1.9877397088647704e+00  1.5989841431202259e+00  1.2767506319325981e+00  6.6752839304486500e-01  9.4292233424322336e-01  4.5601494898592492e+00  6.5189403534971593e+00  5.9224219127579802e+00  8.9766810349282338e+00  9.7224134717514072e+00  9.6224874467245112e+00  8.7979575886803847e+00  8.6936591930099283e+00  4.2744784658155641e+00  6.5666234306992841e+00  5.9156616172913479e-01  7.2069502658793061e-01  1.1044286165335548e+00  9.3301679153785844e-01  1.2505453085194664e+00  1.1488498285842326e+00  9.9131933898693358e-01  7.9959619123861065e+00  7.9195953298555741e+00  4.0750821803006243e+00  7.4653411057997694e+00  9.5418813698860152e+00  3.1791508040011509e+00  2.4480261144942030e+00  9.8762112082378302e+00  9.3653258634293763e+00  9.4483323190303956e+00  6.8419570986902611e+00  4.1259388185200369e-01  8.0607873500857430e+00  5.8777262825031729e+00  3.0978657410340218e+00  8.4949826196738449e+00  9.0034081618914943e+00  1.0202007068958805e+00  9.2888390566661361e+00  9.1722726624111068e+00  8.9725347691074617e+00  9.8548464587152633e+00  9.4434161849157174e+00  9.4929432166738685e+00  9.6284771356395726e+00  9.3140106071735911e+00  2.7339924120064167e+00  5.4467304981501197e-01  9.2914056567717029e-01  9.8599589569624531e+00  2.8902470919153127e+00  9.4053347681434096e-01  8.0911803416187400e+00  8.5284624804475868e+00  5.1907246123749076e+00  3.6639474176528175e+00  5.7375336639570378e+00  1.5156396032013804e+00  1.6748488669577206e+00  1.4259655134122695e+00  1.0118726346661126e-01  2.6283238078838576e+00  9.1841284559309635e+00  9.0019598344231593e+00  7.4676922154350944e-01  9.6561496582636881e+00  9.0270808133107305e+00  9.3210519210917191e+00  8.7357291169131113e+00  7.8632010957061942e+00  9.7237104175954259e-01  7.7097429427702013e-01  5.5948937766398932e-01  6.1614555954028305e-01  7.5025196285105631e+00  8.94665