<?xml version="1.0"?>
<VTKFile type="UnstructuredGrid"  version="0.1"  >
<UnstructuredGrid>
<Piece  NumberOfPoints="2513" NumberOfCells="4852">
<Points>
<DataArray  type="Float64"  NumberOfComponents="3"  format="ascii">-1 1 0  -1 -1 0  1 -1 0  1 1 0  0 -1 0  1 0 0  0 1 0  -1 0 0  0 0 0  -1 -0.5 0  -0.5 -1 0  -0.5 1 0  -1 0.5 0  1 -0.5 0  0.5 -1 0  1 0.5 0  0.5 1 0  0.4166666666666666 -0.4166666666666667 0  -0.4166666666666667 0.4166666666666667 0  -0.25 -0.5 0  0.5 0.25 0  -0.4861111111111112 -0.06944444444444445 0  0.0732758620689655 0.507183908045977 0  -0.625 -0.625 0  0.625 0.625 0  0.7380952380952381 -0.25 0  -0.7099116161616161 0.2105429292929293 0  -0.25 0.7380952380952381 0  0.105392156862745 -0.6348039215686275 0  0.6770833333333334 -0.6770833333333333 0  -0.6770833333333334 0.6770833333333334 0  0.3472222222222222 -0.06944444444444446 0  -0.7264957264957265 -0.3044871794871795 0  0.3141940982507127 0.7297313660835709 0  0.02049587951122483 -0.3227479397556124 0  -0.2690972222222223 0.1475694444444444 0  0.3859500089908372 -0.7274430156831472 0  -0.2228477945123298 -0.1761765495248019 0  0.2182539682539683 0.1884920634920635 0  0.75 0.375 0  -0.145442219440968 -0.7602211097204841 0  0.7088913690476191 0.0427827380952381 0  -0.75 -1 0  -1 -0.75 0  1 0.75 0  0.75 1 0  -0.7439982703698937 -0.04614153195464455 0  -0.4609235096577606 -0.3356498099556895 0  0.4063134471431929 0.4895621842856023 0  0.25 -1 0  -0.25 -1 0  -0.75 1 0  0.75 -1 0  -1 -0.25 0  -1 0.25 0  1 -0.25 0  -0.25 1 0  1 -0.75 0  -1 0.75 0  0.25 1 0  1 0.25 0  -0.4041423272138783 -0.7597141090712928 0  0.06500839607911253 0.7578103030529481 0  -0.1572801182352047 0.3838997021864289 0  -0.6528005242053915 0.4409494757946086 0  -0.4930160984848485 0.1544744318181818 0  -0.4732142857142858 0.7752976190476191 0  0.6398809523809523 -0.4538690476190476 0  0.5166054117396399 -0.2161233620965164 0  -0.002273787244753427 0.2232363985975174 0  0.1500564496765022 -0.1524955293952667 0  0.2016720420046758 -0.4410343282803009 0  -0.08495178036419618 0.6274139771124571 0  -0.8367311471133162 0.3642591720794645 0  -0.8333333333333334 -0.625 0  -0.594323836800685 -0.8231079456002283 0  -0.4466957714776065 -0.5349126855671806 0  0.8125 0.5625 0  0.78125 0.78125 0  0.5091392650016769 0.7947130883338923 0  0.125 -0.8382681931833136 0  -0.8184523809523809 -0.8184523809523809 0  -0.07781530426104531 -0.5819319697006881 0  0.5085055196703295 0.04967610411902112 0  0.2918471072074933 -0.276017202318847 0  0.5120763537765269 -0.5898771553229597 0  0.625 -0.8585349462365591 0  0.8158532234335381 -0.8158532234335381 0  -0.5198088446315396 0.5739411553684605 0  -0.8585349462365591 0.625 0  -0.8150493805516597 0.8156205699829586 0  0.8585349462365591 -0.625 0  -0.2688268348649726 0.5439331383603209 0  0.8242100426758139 -0.4436043596336612 0  0.5833756314287952 0.4479378157143976 0  0.8690476190476191 -0.125 0  -0.125 0.8690476190476191 0  -0.8692745600729823 0.125 0  0.8696725120759167 0.125 0  -0.625 0.8711516477451908 0  0.2339522463269718 0.3879558377955778 0  0.2453709502295031 0.5655822922838026 0  0.1730610651637797 0.02021709580868947 0  0.3245402594056757 -0.5644672020485209 0  -0.7291666666666666 -0.4816595441595442 0  -1 -0.375 0  -0.5811140848639904 -0.2127276307675001 0  0.673332592838314 0.2158348143233718 0  0.375 1 0  -0.5714768890989919 0.2985103444040069 0  -1 -0.125 0  -0.8453692574786325 -0.1875 0  -0.3144549134065865 -0.02408675326008025 0  -0.2898414972096258 -0.3336092734780093 0  -0.1075052092206287 -0.4224330421314983 0  -0.05043970703604117 -0.1652278959397459 0  0.6459672950297897 -0.1113415301525317 0  0.4645210271029513 0.6398480556579343 0  0.3512863754411909 0.0937979496253573 0  -0.6063160985568274 0.03891469652249891 0  -0.3428819444444445 0.8690476190476191 0  0.625 1 0  -0.1602164796159982 0.02697860906625157 0  0.04648110064133829 -0.4808416424239687 0  1 0.875 0  -0.3836102479201657 0.6484936449177356 0  -0.3776011723096096 0.263078478984336 0  -0.6024978259969829 -0.3949628096211138 0  0.125 1 0  0.2010781308272777 0.8456221018461906 0  0.2822509696388829 -0.845902544691141 0  -0.3285533674953515 -0.6289773550938936 0  0.3461306793221754 0.278777492464833 0  0.4737475672408696 -0.8508448959534423 0  0.2384632828836344 -0.7029523187242811 0  -0.004777287059791593 0.3759269695907358 0  -0.8499735021850066 -0.3912320205328522 0  0.1222536293721587 0.2963971539625205 0  -0.3769456520999688 -0.203572526805711 0  -0.2749617205755651 -0.8464290792698902 0  0.004805888512766143 -0.747174355248311 0  -0.125 -1 0  -0.06001061822252458 -0.8724007765244854 0  0.875 0.4375 0  0.854421179608893 0.271342359217786 0  0.875 1 0  -0.1499861095763589 0.2358309656934888 0  0.3381943639137225 0.8663061796405532 0  -0.7853090110442228 0.4998412775277108 0  0.7398165998560814 -0.5535192694951373 0  0.1580042122341573 -0.3100246140259917 0  -0.7291666666666667 -0.7142857142857142 0  -0.375 -1 0  0.6483368386154684 0.8514905990110488 0  -0.1295370103291928 -0.2826118305021242 0  0.07458201853700455 0.1123894386563915 0  0.6146465857036327 -0.3161203659316075 0  0.5551898493894731 -0.740296118159085 0  0.375 -1 0  0.482702798370208 -0.084133350091034 0  0.87890625 0.68359375 0  -0.05917195534525846 0.4971092425697621 0  0.1260710309213975 0.6343750312956699 0  0.8690476190476191 -0.3077066815262848 0  -0.2912010232560567 0.3668168386732139 0  -0.875 1 0  -1 0.875 0  1 -0.875 0  0.875 -1 0  -0.8689564281364567 -0.006189266075306407 0  -0.7449425635110547 0.08458938160051771 0  -0.7150266761936593 -0.1739444581417552 0  -0.5260034831318311 -0.711099823962112 0  -0.4724626808827322 -0.871722230709409 0  0.4734436795977052 0.377714794132168 0  -0.875 -1 0  -1 -0.875 0  0.6927189078571988 0.5156567235715964 0  -0.3742497615796874 -0.4296005251260107 0  -0.1969436423297711 -0.6387157229772615 0  -0.6179496409766825 -0.08933356056510935 0  -0.424405057115988 0.04452428810878029 0  -0.08479048335844169 0.1279607007132633 0  0.003830300099055113 0.8712085230656206 0  0.8748778838820267 -1.379218479898026e-05 0  -0.375 1 0  -0.625 1 0  1 0.125 0  -0.125 1 0  1 -0.375 0  1 -0.125 0  1 -0.625 0  0.625 -1 0  0.125 -1 0  -0.625 -1 0  -1 -0.625 0  -1 0.125 0  -1 0.375 0  -1 0.625 0  1 0.375 0  1 0.625 0  0.6325660748712082 0.3335187599557389 0  -0.06420945895056573 0.7549874027425891 0  -0.8769015540914771 0.2478802253893416 0  0.871875 0.871875 0  -0.6868091492840067 0.3270978624973681 0  -0.5363597469565949 0.412994850055505 0  -0.6803734992638302 0.5574295000651103 0  -0.7076253581162534 -0.8803439094224437 0  -0.8778089002295137 -0.5106896447504627 0  -0.3860184984222981 0.530566778071246 0  0.6109900617121508 0.1128453077697081 0  0.3896945134930274 -0.1915382873255086 0  0.7605656944697778 -0.06822134873122943 0  0.3576151269893478 0.5948388411612135 0  -0.5689902680792265 -0.5143596830118065 0  0.6262446286847614 -0.5735657901943212 0  0.2030558252325225 -0.5625263842513452 0  0.6123273142928579 0.7407533260723429 0  0.4016460890123554 -0.3042863223111857 0  -0.59039693199147 0.7578418819188018 0  0.7276932493917544 -0.3705808024528924 0  0.5222536818742854 -0.4713886230400014 0  -0.5101986527137737 0.8848365765607674 0  0.510560172809238 0.5356013299918891 0  -0.3603569195756083 0.75823710606415 0  0.1967279277813232 0.728226870058472 0  -0.6086880986371127 0.1545624071548516 0  -0.38105366729386 0.1511189987807864 0  -0.2944659463671584 -0.7359061804869591 0  0.5060729154966499 -0.3475227845833823 0  -0.09281616240412746 -0.06197858250969457 0  0.7649739583333334 0.6673177083333334 0  0.7628906249999999 0.890234375 0  -0.2666864184909611 0.2585504071132311 0  0.3635064892129658 0.3878003602709461 0  -0.2339409722222222 0.8901937905844155 0  -0.1718792125974916 -0.8957733325456778 0  0.1001768566329531 0.4023510017391879 0  0.3120260172693757 -0.4540546875576884 0  0.7804062804433681 0.1896628610854537 0  0.4087715451998049 0.187961780041608 0  -0.1584963477271457 0.5451611892421655 0  -0.8926817849258324 0.463022006336401 0  0.2338091473445219 -0.07576267331277289 0  0.08171112182813692 -0.2349087687359925 0  0.04635385178956847 -0.1044635073718474 0  -0.4377391632114205 -0.6448874471423088 0  -0.1907678351227189 0.6480215912813945 0  0.300605946475244 0.4741444604171038 0  -0.2145033720757486 -0.06751709909419711 0  0.6069191921170397 -0.005492331448357812 0  0.0214718770761248 0.6032397936031719 0  0.5476675683364878 0.8992752415326501 0  0.4387475014316537 0.9093708953002239 0  -0.4932997685306436 -0.4381009159993523 0  0.2515197695339056 -0.1791673369138964 0  -0.7291666666666667 -0.6088789682539681 0  -0.9166666666666667 -0.6875 0  0.620579540363709 -0.2122431523583302 0  -0.484950136419973 0.6719440339397442 0  0.2857044415400258 0.0137589173127316 0  -0.8945708364098356 -0.288306105327986 0  0.4043102720140535 0.7842914560451557 0  0.04123256238752064 -0.9026968245801402 0  0.2003676884403109 -0.9091888601740487 0  0.1068775558538842 -0.7373377130403223 0  -0.4804566783514427 -0.1763307203045643 0  0.108286342087769 -0.3993789328997278 0  -0.191883080105361 -0.3640821726430649 0  -0.07025064492006244 0.2984876656890053 0  -0.7039324641409584 0.788312126296613 0  -0.7311286585775438 0.8932502354831682 0  0.5171409396884947 0.1503852691889257 0  0.4229392823658633 -0.003216522184234835 0  -0.5621736087218259 -0.919558629836806 0  -0.626474064879544 -0.7266572613636506 0  0.2446828746617422 0.2867616783302419 0  0.1759429608742923 0.4776611759306416 0  -0.3468240303741654 -0.5260416435617549 0  -0.7465808808425306 0.4069574477998361 0  -0.7819962170660292 0.2802441065650652 0  -0.3742623214119594 -0.8547800509641984 0  0.1014498009713561 0.8506721983266377 0  0.4285217620918213 -0.5230190595570253 0  0.4091738370487775 -0.6256346204225141 0  0.78125 0.46875 0  0.90625 0.53125 0  -0.4791801348852565 0.2553992655702126 0  0.7843318610782772 -0.7086046956885941 0  0.8909728264971901 -0.7355183796514634 0  0.7041908166528879 -0.7830649143180282 0  0.7311821352
[...]
<PointData  Scalars="velocity-2"> 
<DataArray  type="Float64"  Name="velocity-2"  format="ascii">0.0000000000000000e+00  0.0000000000000000e+00  1.0000000000000000e+01  1.0000000000000000e+01  3.6832992330839622e+00  1.0000000000000000e+01  3.6828832537336793e+00  0.0000000000000000e+00  3.6833651389789739e+00  0.0000000000000000e+00  1.7015289090163852e+00  1.7016579597343384e+00  0.0000000000000000e+00  1.0000000000000000e+01  6.4176202254457628e+00  1.0000000000000000e+01  6.4178944173321240e+00  5.8946641618211695e+00  2.0016865816565654e+00  2.6303777081770510e+00  6.4185058184637969e+00  1.7512153485373170e+00  4.0259350407988350e+00  1.2648533811285356e+00  7.2529707873758795e+00  8.0517296620389232e+00  9.7409422071714757e-01  2.6303595548048122e+00  4.1818182536005235e+00  7.6160964266407287e+00  1.0860629340308143e+00  5.4788861885140854e+00  9.1782825045672467e-01  5.2883813154364709e+00  3.7774155697775149e+00  2.5559056789090446e+00  5.7082209820783198e+00  2.7375340881284265e+00  4.7589511761796288e+00  8.1376717315951090e+00  3.0517970916365385e+00  7.8419343738366756e+00  8.3808726291069602e-01  0.0000000000000000e+00  1.0000000000000000e+01  8.1375256114891137e+00  8.5840849966571475e-01  1.8414285835400219e+00  5.8311710463603879e+00  4.9294338791765284e+00  2.6301511252823415e+00  8.3817239494798312e-01  8.1371535237491290e+00  0.0000000000000000e+00  0.0000000000000000e+00  1.0000000000000000e+01  2.6305965128714703e+00  1.0000000000000000e+01  0.0000000000000000e+00  4.9298482212099293e+00  1.0000000000000000e+01  2.0474255959968151e+00  3.9863602264617275e+00  3.0025225289007254e+00  1.1691064677909035e+00  1.7265131506908324e+00  1.7972512863954970e+00  7.3554093743008906e+00  6.5261585521071490e+00  3.6731651461242238e+00  4.4040765745968811e+00  4.6707382404865214e+00  3.3071627364651826e+00  5.4594847928824153e-01  5.5737746766679364e-01  1.3709629118585971e+00  1.8926786013524943e+00  8.5949123048125866e+00  8.3653751163589938e+00  6.4771399038853561e+00  4.2788077227342054e+00  6.0735285742092160e-01  3.3382492089799540e+00  6.4730191256466076e+00  5.1619225737237375e+00  6.4964016089169343e+00  7.2530154996812302e+00  8.6195315362131719e+00  1.6316280310849709e+00  4.7281958563758969e-01  6.1876880890265673e-01  8.9363002769032605e+00  2.5570717236175149e+00  8.6811795168455248e+00  6.9689918773768857e+00  9.0146909978697760e+00  3.1367210644459509e+00  4.3680799370874684e-01  9.0192748800540947e+00  1.2647416134489617e+00  4.8430099182311075e+00  4.9044955367212548e+00  4.5218209217297867e+00  5.3476363488599308e+00  9.0871095084668685e-01  0.0000000000000000e+00  1.4168487594154431e+00  7.5897397734584064e+00  5.6420035777003621e+00  1.4502628715455517e+00  0.0000000000000000e+00  5.1698996198204239e-01  2.3817473173973704e+00  2.4759463254233229e+00  3.2108515598046266e+00  3.4576244332421848e+00  7.3982064887759433e+00  6.1923795130088068e+00  5.5026879325281230e+00  1.3292239073549970e+00  2.2745131106323764e+00  7.2526523208537661e+00  2.9907102677436508e+00  3.8984534923004399e+00  1.0000000000000000e+01  2.1228869618551136e+00  2.1452148184422635e+00  1.3425278125203577e+00  4.2780159628928995e+00  4.6681687163881334e+00  5.1077384130040269e+00  2.3285239750173661e+00  5.4730782192253145e+00  6.2503632949234493e+00  4.8675406607083769e+00  3.6617160672697451e+00  5.0151862179463547e-01  4.2651618288825208e+00  2.1474817028827911e+00  2.5332751325155969e+00  3.7051763380686373e+00  3.1368250319382947e+00  3.4153869268779857e+00  9.0591399870348006e+00  8.9056443657052249e+00  9.0592101151467173e+00  3.0327167371426640e+00  5.4265262879292635e+00  7.1896230632669944e-01  8.0641708805847330e+00  4.4449005730688871e+00  9.0877600277731274e-01  2.1546915717847006e+00  7.4145666894012736e+00  3.1178966670041581e+00  4.0324962080315414e+00  7.1815860448056776e+00  6.7798880317297190e+00  5.6423281711670183e+00  6.3072127671701601e+00  9.0884350378294485e+00  3.4194174417367345e+00  4.2838889552420216e+00  9.0146540127554182e+00  2.4707387505462881e+00  4.1761584861531836e-01  0.0000000000000000e+00  1.0000000000000000e+01  9.0590032946904469e+00  4.3789814821527667e-01  8.5525479734387666e-01  9.5672969624225879e-01  1.6097828813077564e+00  1.8000362905693543e+00  6.2484917177899053e+00  4.1763807860970759e-01  0.0000000000000000e+00  7.7268411312622538e+00  2.1575901496550065e+00  2.8412109275422170e+00  1.2891385080244913e+00  1.9735162193837328e+00  3.3079603985992567e+00  3.7011268554080443e+00  9.0582227518283638e+00  2.1543606606094388e+00  1.2647083897284828e+00  1.0000000000000000e+01  3.1368901198023775e+00  1.0000000000000000e+01  1.0000000000000000e+01  1.0000000000000000e+01  7.2526194151652783e+00  4.2780738286340672e+00  1.2647356350519599e+00  0.0000000000000000e+00  0.0000000000000000e+00  0.0000000000000000e+00  0.0000000000000000e+00  1.0000000000000000e+01  1.0000000000000000e+01  7.3052259924440186e+00  3.3971873876425120e+00  4.1126435565761826e-01  9.0357151330891252e+00  1.0527285382006897e+00  1.5732220786721050e+00  1.0747571688781949e+00  9.8194641329418353e-01  4.0823779400051041e-01  2.1140014928160080e+00  7.1568455473299251e+00  5.7313324781513106e+00  8.2143825517378737e+00  5.5402370796934433e+00  1.4590992558455138e+00  7.2613388509246555e+00  4.6782060021791461e+00  7.1659019599310945e+00  5.8029210369121165e+00  1.3844779045558622e+00  7.9766213640765118e+00  6.5629296102765107e+00  1.6656974121268122e+00  6.4867072692981269e+00  2.2090137646624033e+00  4.6453284436365676e+00  1.3210757806145139e+00  2.1323031016720879e+00  2.4581015659411731e+00  6.4574193903536230e+00  3.2735514033780508e+00  8.2465371591652392e+00  8.2313238822485673e+00  2.5651736543667565e+00  5.5750984321246841e+00  2.6937282922300003e+00  2.9429422751572019e+00  4.1561779360855731e+00  5.2756010068483032e+00  8.3589797560387087e+00  5.8461724344175403e+00  2.9976704855370766e+00  3.5844628431674891e-01  4.8422555550304667e+00  4.0666566411598639e+00  3.8980336001590419e+00  1.9249399209262439e+00  2.8660870090275012e+00  5.2110377965967229e+00  2.7704614924382098e+00  7.1288797420589631e+00  3.7816647905885148e+00  6.7302121517088995e+00  6.0304886021480089e+00  1.7257447931443286e+00  4.9382625306540531e+00  9.0877989975898832e-01  2.7825555420397796e-01  7.2223942656623228e+00  1.7554316874038838e+00  5.1271458759287443e+00  3.5215197885963612e-01  5.8191971215817961e+00  3.8739055740058053e+00  4.6639282894054945e+00  4.1890029126040025e+00  1.7713805607269355e+00  4.1958416902435243e+00  2.8616212344115679e+00  3.3709677334440187e+00  9.9446873908190048e-01  9.0198592311973724e-01  6.5294206571018938e+00  5.9329262309158830e+00  1.4828289725736721e+00  1.2597575078700989e+00  4.9008844042242208e+00  4.5370758325318796e+00  2.2595216475116704e+00  8.4971928516242212e-01  7.3003674521191564e-01  2.1573694678656894e+00  4.1623536879373688e+00  5.9676289147289445e+00  5.8486074688333121e+00  8.3653526765096551e+00  9.2932789544290575e+00  1.7758920193322894e+00  8.3877684963987775e+00  9.1787562312158641e+00  7.8084285541353839e+00  8.0018070664452132e+00  2.7361254725476647e-01  3.1103021226932259e-01  7.2248912397526688e-01  2.6943075830276295e+00  6.7037339747309432e-01  3.4190457559423859e-01  3.0314381865220941e-01  5.8232961284841622e-01  5.7634128531302287e-01  9.1919111068889610e+00  2.4860019915300078e+00  1.4148356669985633e+00  5.6643235265105885e+00  3.3446799398577132e+00  3.7863677725319467e+00  2.9621119170759460e+00  7.7552222399367932e-01  5.2843055757250763e+00  4.2582775475021446e+00  2.1128351236714997e+00  2.3262569013774055e+00  2.6220333661511080e-01  6.8288843182503642e+00  9.2113356651825438e+00  9.2967871584465360e+00  9.0620806542628145e+00  1.5984151110020077e+00  1.8008578497177541e+00  1.3684790338086517e+00  4.8799838391331392e+00  8.1050062281867241e+00  2.3321288377087184e+00  5.3278365084552775e+00  4.8425291261294285e+00  2.9917464658347939e+00  6.2496092241022678e+00  2.9142227092736070e+00  1.2546551052470307e+00  8.0248365893091798e+00  2.3892312243660481e+00  8.3569419420321314e+00  5.7576984236291762e-01  9.2987753503216464e+00  2.2380217959971521e-01  1.6497666470164409e+00  7.5602030171409007e+00  7.0919323536457384e+00  7.0061414603270880e+00  3.4045303652790193e+00  7.1068147280082006e-01  2.1821499605437730e-01  8.5154231185222677e+00  9.5083414799916195e+00  2.4066459151928496e+00  5.2788575060663900e+00  6.6011302402063894e+00  6.0232181000617944e+00  9.5080671885188703e+00  8.5947481576352249e+00  5.1200071343704101e+00  4.2988142842705948e+00  1.9258486819521077e+00  8.1522132863582586e-01  6.9520261641195003e-01  1.1238974813326958e+00  9.5076642258327890e+00  2.0913456642386044e-01  2.0936718423313883e-01  9.5083479992699544e+00  9.5059136293536923e+00  3.9743206390969052e+00  2.6888306528937095e-01  9.5054074040146119e+00  7.8486093453519494e+00  6.9643498752609272e+00  4.2210675309337358e+00  4.5947303552929686e+00  7.6899376820859517e+00  5.7052341044290662e+00  5.4417464663105690e+00  3.6919832477402643e+00  4.0815256053024003e+00  2.1819107914116631e-01  1.0535632679809510e+00  7.8011817080313799e+00  2.6382917061370148e+00  3.0292531266645994e+00  1.7930067603678110e+00  3.6599966132818782e+00  4.5970624258967048e+00  1.6772017400397925e+00  2.4855839854530632e+00  2.1536169638112566e+00  2.7409991267206468e+00  6.9348272211183684e+00  6.0451772767489986e+00  8.6656445610414021e+00  3.7102190774723920e+00  1.6562168676385036e+00  6.4305836281489326e-01  2.4516255531893414e+00  8.0138960012792033e+00  8.7737049431695713e+00  2.7827195448636394e-01  2.4708849549140699e-01  6.8520655999169895e+00  7.7535383725196416e+00  2.7567841065113479e+00  7.6647194484285492e+00  3.1337574771892833e+00  5.0005983907810245e+00  6.7108351027669260e+00  1.9487537042657748e+00  1.5212936267597046e+00  3.4754974493289374e+00  3.6348830319666523e+00  3.3951421070187897e+00  4.3644832150465129e+00  1.5137313353625792e+00  1.2035940673071268e+00  1.3244944805299412e+00  1.2239365139859413e+00  1.5430292663269354e+00  1.4814894560947502e+00  3.3490784060283718e+00  3.6696875484787266e+00  2.8826250802280837e+00  6.4306380330393189e+00  4.9560982911639266e+00  1.1281432558391535e+00  1.5223227655831895e+00  8.1206289906230520e+00  3.0903501508972706e+00  5.8724263374543746e+00  6.6984183163417717e+00  6.0099295411398899e+00  1.9258399737962633e+00  4.7383700804909159e+00  2.4387309158880854e+00  2.4567620209699537e+00  4.4376912439502281e+00  3.7215934066216243e+00  4.2549526578695875e+00  4.6920732215438363e+00  3.3303348548733163e+00  2.1658886128198249e+00  2.0395929920436373e+00  8.6535308890816260e+00  9.5251267320295661e+00  5.3039349105741582e+00  2.9394094435069756e-01  3.0341793328357651e+00  6.1221829084294583e+00  2.3481082784264227e+00  8.7006967979020331e+00  1.9603805477936411e+00  5.2080592821764009e+00  2.7278245636364162e+00  1.8898862385833706e+00  9.4663664986792622e+00  3.4439641680272109e-01  4.3953966798627739e+00  7.2512443658680397e+00  9.0869111060613541e+00  2.0863558909927901e-01  8.4120434943388940e+00  2.8794950928813052e+00  2.3113703934264933e+00  1.0767783314180577e+00  2.6300559608282553e-01  5.0100215384368587e+00  6.9609321422293480e-01  1.1291626729870401e+00  1.1515846217640280e+00  3.8425288011009151e+00  3.8505414585175735e+00  7.6891654214960106e+00  7.5125914179260285e+00  4.9299085367395046e+00  1.0000000000000000e+01  1.9741014406111359e+00  6.3714523562620362e-01  6.7415362456753360e+00  2.4998214041743165e+00  2.1527637271497708e+00  3.3729700052589964e+00  1.2406520635546365e+00  1.0504185936467860e+00  6.9205701966774660e+00  7.9246592616096603e+00  1.5643733606024512e+00  1.4991977854611473e+00  5.2783910825169027e+00  2.0979507440506011e+00  4.4729415606973868e+00  1.9889146621510894e+00  3.0575986813334097e+00  2.8006097174060995e+00  3.3437358097180878e+00  1.0000000000000000e+01  8.9624907713543713e+00  6.6250874066818799e+00  6.1750871865326253e+00  4.8800624216141980e-01  7.7118052365453211e+00  6.9997381939990229e+00  5.1689033672785261e+00  3.5621091154636284e+00  1.0503530574235405e+00  9.5000479238208211e+00  2.9499262365393095e+00  2.6588115883465946e+00  9.4779612480166386e-01  6.2155205693267601e-01  6.0735287963555340e+00  7.2036747509459653e+00  2.8272574373587824e+00  3.8449189401378723e+00  4.4722121051464478e+00  4.5325207669212118e+00  4.2454258192678793e+00  1.2444144012372693e+00  6.9704031996598061e+00  0.0000000000000000e+00  1.1572777796913660e+00  1.4067614093773553e+00  3.2149218034141591e+00  1.9729525312764076e+00  2.3268394741908685e+00  8.7854491854083943e+00  5.8582214096018470e+00  6.1611745771279516e+00  3.3196435167511122e+00  2.3616425413432435e-01  7.6548570758197041e+00  3.1312446888343408e+00  3.5799256298848410e+00  3.6035346661436445e+00  1.0000000000000000e+01  7.4351473928523131e+00  6.8814413136658459e+00  7.5507644109330050e+00  2.2313062272452830e+00  9.5283426087868826e+00  8.8263643752192635e+00  9.4508232987716916e+00  0.0000000000000000e+00  9.5282750090439521e+00  3.1629331248948072e+00  8.0602661135505438e-01  1.0488363170877157e+00  5.3136523078628120e+00  5.3375573713024735e+00  5.6174423425606212e+00  5.5166404734638972e+00  9.4775160532389702e+00  8.6195390840742885e+00  4.5326058376963765e+00  4.1093023245173983e+00  5.2110595405417737e-01  2.7297037817304539e+00  4.0311253892049423e+00  2.5708526460908003e+00  1.7666708568017631e+00  7.5767768074420316e-01  1.1021417478988291e+00  7.3259128867417211e-01  2.3589250805590964e+00  7.7033014065613372e+00  1.3033877002976513e+00  5.8553531232051803e+00  0.0000000000000000e+00  1.5489062943726977e+00  9.4913314390697678e+00  4.1148053897119208e-01  5.5594387220251020e+00  3.9296235054386131e+00  2.1830653890320764e+00  4.7281068898117828e+00  3.9475099875359225e+00  3.4160405107553631e+00  3.6820327036166729e+00  6.1122625085412716e+00  9.5060849722272831e+00  6.6076237721527709e-01  8.5354569192210938e+00  4.0095773664366332e+00  9.5178056871188428e+00  4.4074982197053618e+00  5.4776441935004971e+00  3.7052739736958231e+00  1.4566275270928699e+00  3.2824837057813729e+00  1.0000000000000000e+01  4.0438658105906011e+00  7.4472685618819379e-01  5.2115268053231212e+00  9.3489830132068297e-01  3.1322526859621256e+00  8.5226536895022988e+00  6.4208843481771609e+00  8.3055976688753741e-01  7.6074501328263033e-01  2.3014753126564020e+00  6.2300509441095397e-01  1.4471382376151554e+00  1.7120259339165809e+00  1.5692990577520756e+00  1.8886011519592460e+00  1.8118671889027316e+00  9.5059390254158362e+00  1.0000000000000000e+01  9.2380222790096322e-01  4.0551738131332504e+00  7.2625597935137707e+00  6.2942139407512094e+00  5.9285825389836155e+00  6.6802601672809203e+00  8.8650476420301381e+00  2.8787383933586752e+00  8.1862208220309611e+00  2.6716720374503304e+00  2.8707695144302861e+00  4.9401611435790302e+00  8.6975023276434360e+00  4.3459424445578962e+00  2.1924414758674042e+00  7.5047797291745795e+00  3.1194522075542825e+00  4.5045038419862280e+00  7.5581288309077808e+00  7.3695758746499429e+00  3.9735640845175828e+00  0.0000000000000000e+00  8.7239291748236472e+00  0.0000000000000000e+00  7.2321656704525097e+00  3.4056779715261891e+00  1.9306460212422043e+00  1.9465596875162865e+00  1.9777795802581490e+00  5.5198086952339720e+00  3.0803157026996160e+00  6.8283751598159377e+00  8.7528981039154441e-01  2.7877589995945500e+00  7.8652520458287087e+00  6.5265102000410922e+00  9.0864915438290317e-01  3.0910680703994480e+00  3.1330901154870214e+00  3.9255775407337135e+00  8.3586213129087987e+00  6.9230256725980768e+00  5.6452910340530114e+00  5.0344225400482383e+00  7.7793224613201470e+00  9.0392744365105724e+00  9.5277409181382033e+00  6.4136405847404641e+00  5.0158520446512600e-01  3.6831954463008691e+00  2.2923476782917962e-01  4.2762741307675292e+00  9.5278855702927103e+00  1.0000000000000000e+01  1.0000000000000000e+01  8.5949646948819627e+00  2.3891068294473108e+00  7.6891340271778663e+00  0.0000000000000000e+00  2.0865501268151224e-01  3.9737950202945238e+00  0.0000000000000000e+00  1.0000000000000000e+01  1.9256493952935705e+00  8.5947172942513888e+00  1.0000000000000000e+01  6.0221647743733255e+00  5.2778253099727950e+00  1.0000000000000000e+01  1.0000000000000000e+01  1.0000000000000000e+01  0.0000000000000000e+00  0.0000000000000000e+00  0.0000000000000000e+00  3.4044227394922322e+00  0.0000000000000000e+00  2.3887963059218666e+00  6.8284167197209493e+00  0.0000000000000000e+00  6.2730996578416975e-01  6.2729497941506895e-01  0.0000000000000000e+00  1.4816306642468244e+00  4.5961381185924086e+00  0.0000000000000000e+00  6.0227324839373733e+00  1.0000000000000000e+01  1.0000000000000000e+01  9.5283188761886635e+00  0.0000000000000000e+00  4.5960579639194883e+00  0.0000000000000000e+00  3.4048660009430010e+00  1.0000000000000000e+01  1.0000000000000000e+01  1.5881129363917801e+00  6.5321970335400552e+00  1.8126338019349750e-01  4.8701371210813704e+00  4.4915825166277044e+00  7.0980252599355023e+00  2.7509440165139694e+00  1.4900157405111429e+00  1.6589146039647371e+00  1.3293916281735503e+00  8.5165940896118055e+00  1.1573242245701567e+00  1.9672048160753020e-01  9.8402117274109668e-01  7.9109067779840085e+00  4.2371639030002028e-01  5.2812134029896018e-01  2.0519968548836520e-01  4.2664829503415030e-01  3.1308894673064380e-01  4.6996826384747781e-01  4.3699762724738384e-01  8.5620944302582132e+00  8.0629609455222955e+00  1.5814432087178250e+00  4.3094165291482636e+00  9.4791965793675814e+00  6.1650556309430127e-01  5.1276026788637754e+00  3.0180440343629300e+00  9.3271373316196882e-01  2.7756486989121454e+00  1.9912940529373486e+00  2.5113932274028010e+00  6.6390848043041260e+00  8.7923792701066770e+00  1.4452567647929093e+00  8.2918400274191075e+00  7.8863399237387748e+00  5.5099379959106018e+00  2.4079149706713840e+00  3.5131268137180598e+00  5.8063015499784143e+00  1.8013008765504230e+00  4.0641714891245213e+00  8.5185030233482095e+00  1.9758064130199156e+00  4.9616320255206459e+00  7.4492846945338806e+00  6.7464223760284936e+00  7.3697436686613607e+00  2.0107436811251087e-01  1.7837902174123343e+00  1.5718195534030701e+00  1.3729702315650651e+00  8.9158533665373052e-01  1.1313580485415744e+00  2.9330375179400345e+00  3.9008039974627153e+00  3.5693903676076681e+00  6.7949690940363716e+00  9.0637584813943946e+00  8.7322868341912478e+00  6.3712195266020499e+00  6.1518099947406215e+00  2.8093648178216188e+00  3.9284806596052881e+00  8.1545305337003227e-01  9.4218899326653882e-01  1.2535490674457517e+00  1.1230719091807582e+00  1.3553803861779326e+00  1.2850459847328461e+00  1.1709345753477505e+00  5.0880763008709700e+00  5.0014636678201398e+00  2.7245517402644026e+00  4.5656814131148362e+00  8.4676015011499484e+00  2.3412341777108225e+00  2.0114696229959672e+00  9.5799861701481550e+00  7.9048192916461399e+00  8.1644594288541406e+00  4.1009280927947209e+00  6.1191319925654186e-01  5.1652349923337191e+00  3.5466372827117665e+00  2.3052547701580801e+00  5.7813200512250669e+00  6.8621094199215813e+00  1.1913828338095245e+00  7.6663145470238865e+00  7.3222268104342865e+00  6.7827306060345514e+00  9.5102783505501947e+00  8.1488923550659003e+00  8.3088011487266673e+00  8.7502930017640761e+00  7.7441709500012941e+00  2.1428915416970642e+00  7.6543995693979083e-01  1.1208216713389292e+00  9.5258514956425806e+00  2.2131557416911671e+00  1.1297499720821269e+00  5.2034523826975008e+00  5.8425958007168566e+00  3.2145817644242860e+00  2.5493535988591138e+00  3.4755112634329124e+00  1.5224562979868486e+00  1.6151445742515695e+00  1.4685573178372291e+00  1.6642904643522102e-01  2.0948396750730041e+00  7.3573574484571971e+00  6.8567499098222955e+00  9.6479838796928807e-01  8.8436302095373591e+00  6.9238133750845146e+00  7.7664325491714008e+00  6.2358193771090002e+00  4.9439709369927778e+00  1.1555644160551282e+00  9.8727895453508618e-01  7.8062059743763657e-01  8.3938317613635260e-01  4.5975214378087950e+00  6.71705