<?xml version="1.0"?>
<VTKFile type="UnstructuredGrid"  version="0.1"  >
<UnstructuredGrid>
<Piece  NumberOfPoints="2513" NumberOfCells="4852">
<Points>
<DataArray  type="Float64"  NumberOfComponents="3"  format="ascii">-1 1 0  -1 -1 0  1 -1 0  1 1 0  0 -1 0  1 0 0  0 1 0  -1 0 0  0 0 0  -1 -0.5 0  -0.5 -1 0  -0.5 1 0  -1 0.5 0  1 -0.5 0  0.5 -1 0  1 0.5 0  0.5 1 0  0.4166666666666666 -0.4166666666666667 0  -0.4166666666666667 0.4166666666666667 0  -0.25 -0.5 0  0.5 0.25 0  -0.4861111111111112 -0.06944444444444445 0  0.0732758620689655 0.507183908045977 0  -0.625 -0.625 0  0.625 0.625 0  0.7380952380952381 -0.25 0  -0.7099116161616161 0.2105429292929293 0  -0.25 0.7380952380952381 0  0.105392156862745 -0.6348039215686275 0  0.6770833333333334 -0.6770833333333333 0  -0.6770833333333334 0.6770833333333334 0  0.3472222222222222 -0.06944444444444446 0  -0.7264957264957265 -0.3044871794871795 0  0.3141940982507127 0.7297313660835709 0  0.02049587951122483 -0.3227479397556124 0  -0.2690972222222223 0.1475694444444444 0  0.3859500089908372 -0.7274430156831472 0  -0.2228477945123298 -0.1761765495248019 0  0.2182539682539683 0.1884920634920635 0  0.75 0.375 0  -0.145442219440968 -0.7602211097204841 0  0.7088913690476191 0.0427827380952381 0  -0.75 -1 0  -1 -0.75 0  1 0.75 0  0.75 1 0  -0.7439982703698937 -0.04614153195464455 0  -0.4609235096577606 -0.3356498099556895 0  0.4063134471431929 0.4895621842856023 0  0.25 -1 0  -0.25 -1 0  -0.75 1 0  0.75 -1 0  -1 -0.25 0  -1 0.25 0  1 -0.25 0  -0.25 1 0  1 -0.75 0  -1 0.75 0  0.25 1 0  1 0.25 0  -0.4041423272138783 -0.7597141090712928 0  0.06500839607911253 0.7578103030529481 0  -0.1572801182352047 0.3838997021864289 0  -0.6528005242053915 0.4409494757946086 0  -0.4930160984848485 0.1544744318181818 0  -0.4732142857142858 0.7752976190476191 0  0.6398809523809523 -0.4538690476190476 0  0.5166054117396399 -0.2161233620965164 0  -0.002273787244753427 0.2232363985975174 0  0.1500564496765022 -0.1524955293952667 0  0.2016720420046758 -0.4410343282803009 0  -0.08495178036419618 0.6274139771124571 0  -0.8367311471133162 0.3642591720794645 0  -0.8333333333333334 -0.625 0  -0.594323836800685 -0.8231079456002283 0  -0.4466957714776065 -0.5349126855671806 0  0.8125 0.5625 0  0.78125 0.78125 0  0.5091392650016769 0.7947130883338923 0  0.125 -0.8382681931833136 0  -0.8184523809523809 -0.8184523809523809 0  -0.07781530426104531 -0.5819319697006881 0  0.5085055196703295 0.04967610411902112 0  0.2918471072074933 -0.276017202318847 0  0.5120763537765269 -0.5898771553229597 0  0.625 -0.8585349462365591 0  0.8158532234335381 -0.8158532234335381 0  -0.5198088446315396 0.5739411553684605 0  -0.8585349462365591 0.625 0  -0.8150493805516597 0.8156205699829586 0  0.8585349462365591 -0.625 0  -0.2688268348649726 0.5439331383603209 0  0.8242100426758139 -0.4436043596336612 0  0.5833756314287952 0.4479378157143976 0  0.8690476190476191 -0.125 0  -0.125 0.8690476190476191 0  -0.8692745600729823 0.125 0  0.8696725120759167 0.125 0  -0.625 0.8711516477451908 0  0.2339522463269718 0.3879558377955778 0  0.2453709502295031 0.5655822922838026 0  0.1730610651637797 0.02021709580868947 0  0.3245402594056757 -0.5644672020485209 0  -0.7291666666666666 -0.4816595441595442 0  -1 -0.375 0  -0.5811140848639904 -0.2127276307675001 0  0.673332592838314 0.2158348143233718 0  0.375 1 0  -0.5714768890989919 0.2985103444040069 0  -1 -0.125 0  -0.8453692574786325 -0.1875 0  -0.3144549134065865 -0.02408675326008025 0  -0.2898414972096258 -0.3336092734780093 0  -0.1075052092206287 -0.4224330421314983 0  -0.05043970703604117 -0.1652278959397459 0  0.6459672950297897 -0.1113415301525317 0  0.4645210271029513 0.6398480556579343 0  0.3512863754411909 0.0937979496253573 0  -0.6063160985568274 0.03891469652249891 0  -0.3428819444444445 0.8690476190476191 0  0.625 1 0  -0.1602164796159982 0.02697860906625157 0  0.04648110064133829 -0.4808416424239687 0  1 0.875 0  -0.3836102479201657 0.6484936449177356 0  -0.3776011723096096 0.263078478984336 0  -0.6024978259969829 -0.3949628096211138 0  0.125 1 0  0.2010781308272777 0.8456221018461906 0  0.2822509696388829 -0.845902544691141 0  -0.3285533674953515 -0.6289773550938936 0  0.3461306793221754 0.278777492464833 0  0.4737475672408696 -0.8508448959534423 0  0.2384632828836344 -0.7029523187242811 0  -0.004777287059791593 0.3759269695907358 0  -0.8499735021850066 -0.3912320205328522 0  0.1222536293721587 0.2963971539625205 0  -0.3769456520999688 -0.203572526805711 0  -0.2749617205755651 -0.8464290792698902 0  0.004805888512766143 -0.747174355248311 0  -0.125 -1 0  -0.06001061822252458 -0.8724007765244854 0  0.875 0.4375 0  0.854421179608893 0.271342359217786 0  0.875 1 0  -0.1499861095763589 0.2358309656934888 0  0.3381943639137225 0.8663061796405532 0  -0.7853090110442228 0.4998412775277108 0  0.7398165998560814 -0.5535192694951373 0  0.1580042122341573 -0.3100246140259917 0  -0.7291666666666667 -0.7142857142857142 0  -0.375 -1 0  0.6483368386154684 0.8514905990110488 0  -0.1295370103291928 -0.2826118305021242 0  0.07458201853700455 0.1123894386563915 0  0.6146465857036327 -0.3161203659316075 0  0.5551898493894731 -0.740296118159085 0  0.375 -1 0  0.482702798370208 -0.084133350091034 0  0.87890625 0.68359375 0  -0.05917195534525846 0.4971092425697621 0  0.1260710309213975 0.6343750312956699 0  0.8690476190476191 -0.3077066815262848 0  -0.2912010232560567 0.3668168386732139 0  -0.875 1 0  -1 0.875 0  1 -0.875 0  0.875 -1 0  -0.8689564281364567 -0.006189266075306407 0  -0.7449425635110547 0.08458938160051771 0  -0.7150266761936593 -0.1739444581417552 0  -0.5260034831318311 -0.711099823962112 0  -0.4724626808827322 -0.871722230709409 0  0.4734436795977052 0.377714794132168 0  -0.875 -1 0  -1 -0.875 0  0.6927189078571988 0.5156567235715964 0  -0.3742497615796874 -0.4296005251260107 0  -0.1969436423297711 -0.6387157229772615 0  -0.6179496409766825 -0.08933356056510935 0  -0.424405057115988 0.04452428810878029 0  -0.08479048335844169 0.1279607007132633 0  0.003830300099055113 0.8712085230656206 0  0.8748778838820267 -1.379218479898026e-05 0  -0.375 1 0  -0.625 1 0  1 0.125 0  -0.125 1 0  1 -0.375 0  1 -0.125 0  1 -0.625 0  0.625 -1 0  0.125 -1 0  -0.625 -1 0  -1 -0.625 0  -1 0.125 0  -1 0.375 0  -1 0.625 0  1 0.375 0  1 0.625 0  0.6325660748712082 0.3335187599557389 0  -0.06420945895056573 0.7549874027425891 0  -0.8769015540914771 0.2478802253893416 0  0.871875 0.871875 0  -0.6868091492840067 0.3270978624973681 0  -0.5363597469565949 0.412994850055505 0  -0.6803734992638302 0.5574295000651103 0  -0.7076253581162534 -0.8803439094224437 0  -0.8778089002295137 -0.5106896447504627 0  -0.3860184984222981 0.530566778071246 0  0.6109900617121508 0.1128453077697081 0  0.3896945134930274 -0.1915382873255086 0  0.7605656944697778 -0.06822134873122943 0  0.3576151269893478 0.5948388411612135 0  -0.5689902680792265 -0.5143596830118065 0  0.6262446286847614 -0.5735657901943212 0  0.2030558252325225 -0.5625263842513452 0  0.6123273142928579 0.7407533260723429 0  0.4016460890123554 -0.3042863223111857 0  -0.59039693199147 0.7578418819188018 0  0.7276932493917544 -0.3705808024528924 0  0.5222536818742854 -0.4713886230400014 0  -0.5101986527137737 0.8848365765607674 0  0.510560172809238 0.5356013299918891 0  -0.3603569195756083 0.75823710606415 0  0.1967279277813232 0.728226870058472 0  -0.6086880986371127 0.1545624071548516 0  -0.38105366729386 0.1511189987807864 0  -0.2944659463671584 -0.7359061804869591 0  0.5060729154966499 -0.3475227845833823 0  -0.09281616240412746 -0.06197858250969457 0  0.7649739583333334 0.6673177083333334 0  0.7628906249999999 0.890234375 0  -0.2666864184909611 0.2585504071132311 0  0.3635064892129658 0.3878003602709461 0  -0.2339409722222222 0.8901937905844155 0  -0.1718792125974916 -0.8957733325456778 0  0.1001768566329531 0.4023510017391879 0  0.3120260172693757 -0.4540546875576884 0  0.7804062804433681 0.1896628610854537 0  0.4087715451998049 0.187961780041608 0  -0.1584963477271457 0.5451611892421655 0  -0.8926817849258324 0.463022006336401 0  0.2338091473445219 -0.07576267331277289 0  0.08171112182813692 -0.2349087687359925 0  0.04635385178956847 -0.1044635073718474 0  -0.4377391632114205 -0.6448874471423088 0  -0.1907678351227189 0.6480215912813945 0  0.300605946475244 0.4741444604171038 0  -0.2145033720757486 -0.06751709909419711 0  0.6069191921170397 -0.005492331448357812 0  0.0214718770761248 0.6032397936031719 0  0.5476675683364878 0.8992752415326501 0  0.4387475014316537 0.9093708953002239 0  -0.4932997685306436 -0.4381009159993523 0  0.2515197695339056 -0.1791673369138964 0  -0.7291666666666667 -0.6088789682539681 0  -0.9166666666666667 -0.6875 0  0.620579540363709 -0.2122431523583302 0  -0.484950136419973 0.6719440339397442 0  0.2857044415400258 0.0137589173127316 0  -0.8945708364098356 -0.288306105327986 0  0.4043102720140535 0.7842914560451557 0  0.04123256238752064 -0.9026968245801402 0  0.2003676884403109 -0.9091888601740487 0  0.1068775558538842 -0.7373377130403223 0  -0.4804566783514427 -0.1763307203045643 0  0.108286342087769 -0.3993789328997278 0  -0.191883080105361 -0.3640821726430649 0  -0.07025064492006244 0.2984876656890053 0  -0.7039324641409584 0.788312126296613 0  -0.7311286585775438 0.8932502354831682 0  0.5171409396884947 0.1503852691889257 0  0.4229392823658633 -0.003216522184234835 0  -0.5621736087218259 -0.919558629836806 0  -0.626474064879544 -0.7266572613636506 0  0.2446828746617422 0.2867616783302419 0  0.1759429608742923 0.4776611759306416 0  -0.3468240303741654 -0.5260416435617549 0  -0.7465808808425306 0.4069574477998361 0  -0.7819962170660292 0.2802441065650652 0  -0.3742623214119594 -0.8547800509641984 0  0.1014498009713561 0.8506721983266377 0  0.4285217620918213 -0.5230190595570253 0  0.4091738370487775 -0.6256346204225141 0  0.78125 0.46875 0  0.90625 0.53125 0  -0.4791801348852565 0.2553992655702126 0  0.7843318610782772 -0.7086046956885941 0  0.8909728264971901 -0.7355183796514634 0  0.7041908166528879 -0.7830649143180282 0  0.7311821352
[...]
<PointData  Scalars="velocity-2"> 
<DataArray  type="Float64"  Name="velocity-2"  format="ascii">0.0000000000000000e+00  0.0000000000000000e+00  1.0000000000000000e+01  1.0000000000000000e+01  8.5978849090982710e+00  1.0000000000000000e+01  8.5997785972111025e+00  0.0000000000000000e+00  8.5982929012130800e+00  0.0000000000000000e+00  5.8518814628769498e+00  5.8520430887028034e+00  0.0000000000000000e+00  1.0000000000000000e+01  9.4117582821115509e+00  1.0000000000000000e+01  9.4120342923576299e+00  9.3099721314630912e+00  6.5464926580034835e+00  7.6336644895183712e+00  9.4118040309180984e+00  5.9727076333253208e+00  8.7732524917736434e+00  4.6171857701076604e+00  9.5600847541850591e+00  9.6929785154046542e+00  3.6670043240174466e+00  7.6340526652048908e+00  8.8395883497623213e+00  9.6216122483443804e+00  4.0435956535086017e+00  9.2212113325841649e+00  3.4738600933988408e+00  9.1774002154289782e+00  8.6505868825362491e+00  7.5303181826046242e+00  9.2712439792749297e+00  7.7734014884183642e+00  9.0380724534174561e+00  9.7069240815738400e+00  8.1192542268950643e+00  9.6589120029280586e+00  3.1932717995217592e+00  0.0000000000000000e+00  1.0000000000000000e+01  9.7071148879882649e+00  3.2648490697458086e+00  6.1900922930275373e+00  9.2974095687365104e+00  9.0866166113484326e+00  7.6357342080261557e+00  3.1912301163510732e+00  9.7070364497400998e+00  0.0000000000000000e+00  0.0000000000000000e+00  1.0000000000000000e+01  7.6326483410880019e+00  1.0000000000000000e+01  0.0000000000000000e+00  9.0863140253776802e+00  1.0000000000000000e+01  6.6431495506149698e+00  8.7551975195503147e+00  8.0728502007570544e+00  4.3154160727525293e+00  5.9133366068948661e+00  6.0848569702777855e+00  9.5778177742898478e+00  9.4314746408857406e+00  8.5916373386314628e+00  8.9248285359503488e+00  9.0124231714692069e+00  8.3439069951022855e+00  2.1203445751203915e+00  2.1641668200836408e+00  4.9385136525757307e+00  6.3079064364378299e+00  9.7803294255442879e+00  9.7437466096856440e+00  9.4227887663093099e+00  8.8771828388963190e+00  2.3511596337984191e+00  8.3664579140472473e+00  9.4217448578073970e+00  9.1463289639278607e+00  9.4260821081940591e+00  9.5604434194474308e+00  9.7843003865073399e+00  5.6693014020163162e+00  1.8429262406017808e+00  2.3934164616117970e+00  9.8342674016351275e+00  7.5314011500333793e+00  9.7941390101716497e+00  9.5110615392445066e+00  9.8466601616734977e+00  8.2009679711126484e+00  1.7054840611750024e+00  9.8472331003588707e+00  4.6169229276453212e+00  9.0625054506265172e+00  9.0800559831849839e+00  8.9650736374556228e+00  9.1908965361830326e+00  3.4407755494946657e+00  0.0000000000000000e+00  5.0738179537664987e+00  9.6170803922364456e+00  9.2579595992833994e+00  5.1709293379312005e+00  0.0000000000000000e+00  2.0107645127083726e+00  7.2615529427317140e+00  7.4111150399351322e+00  8.2646792726758669e+00  8.4541089717141560e+00  9.5851515897060757e+00  9.3685168710548581e+00  9.2268606412634551e+00  4.8158226303066058e+00  7.0782616238482454e+00  9.5603278172764412e+00  8.0592785237070181e+00  8.7134414407170553e+00  1.0000000000000000e+01  6.7956030456709025e+00  6.8377569901155351e+00  4.8540761319638150e+00  8.8783381048114016e+00  9.0104613656262913e+00  9.1332774553594795e+00  7.1721139476658200e+00  9.2192574029676280e+00  9.3801541842366465e+00  9.0690952788947499e+00  8.5851742208197201e+00  1.9521309265314937e+00  8.8724239310783908e+00  6.8437790392877886e+00  7.4960024955541655e+00  8.6109381128520504e+00  8.2007149295556303e+00  8.4253071694894235e+00  9.8534605465980700e+00  9.8295245137892131e+00  9.8537247997843469e+00  8.1021852901403317e+00  9.2092350161050387e+00  2.7634651484510693e+00  9.6951412075133785e+00  8.9382359114602181e+00  3.4417158747064938e+00  6.8588540421826538e+00  9.5878567845098992e+00  8.1827874511632483e+00  8.7752382554733988e+00  9.5478777521638740e+00  9.4775761836591794e+00  9.2572638420757585e+00  9.3907177190550009e+00  9.8580518719901669e+00  8.4265683356638625e+00  8.8800928061284239e+00  9.8465018701497886e+00  7.4022681774539842e+00  1.6322383085607512e+00  0.0000000000000000e+00  1.0000000000000000e+01  9.8537269985017506e+00  1.7091620029524548e+00  3.2524008881749467e+00  3.6074638567293831e+00  5.6116410441512929e+00  6.0903446017227738e+00  9.3797137593193476e+00  1.6324235985621001e+00  0.0000000000000000e+00  9.6399357173638052e+00  6.8620969739641966e+00  7.8975845722905564e+00  4.6911195205492930e+00  6.4867726862756321e+00  8.3440269031968590e+00  8.6072913889790428e+00  9.8532837587167776e+00  6.8611691843276370e+00  4.6167053490566365e+00  1.0000000000000000e+01  8.2001773992700109e+00  1.0000000000000000e+01  1.0000000000000000e+01  1.0000000000000000e+01  9.5604965052138837e+00  8.8781769615028203e+00  4.6178744903909283e+00  0.0000000000000000e+00  0.0000000000000000e+00  0.0000000000000000e+00  0.0000000000000000e+00  1.0000000000000000e+01  1.0000000000000000e+01  9.5690580780805803e+00  8.4114276145452429e+00  1.6069886918216718e+00  9.8498958276141035e+00  3.9348755736047663e+00  5.5146800061710586e+00  4.0074916740887625e+00  3.6938323788620289e+00  1.5958404774712114e+00  6.7787628103511821e+00  9.5437502681053719e+00  9.2750958708955640e+00  9.7194327640059921e+00  9.2349797533623654e+00  5.1957535435911026e+00  9.5618125264914156e+00  9.0142839151115339e+00  9.5454952715496031e+00  9.2909443478477538e+00  4.9797801400024362e+00  9.6808195305650155e+00  9.4387626787012682e+00  5.7576366307859681e+00  9.4245548599614182e+00  6.9610353318692155e+00  9.0038912021206414e+00  4.7905064363878447e+00  6.8140910214699320e+00  7.3838103016112404e+00  9.4189653739782067e+00  8.3162418941696039e+00  9.7246995532252676e+00  9.7223326172741054e+00  7.5435992454465177e+00  9.2421852611797402e+00  7.7166061378058961e+00  8.0089365205879144e+00  8.8292441485756790e+00  9.1752670514969044e+00  9.7428604061647572e+00  9.3004921488258798e+00  8.0665281151049690e+00  1.4039324334992631e+00  9.0621491267895831e+00  8.7905871763783363e+00  8.7127633916192515e+00  6.3816894818912928e+00  7.9257085718901488e+00  9.1587922582297203e+00  7.8152674445071035e+00  9.5390694574905979e+00  8.6537002557895715e+00  9.4689108291087898e+00  9.3375075724105798e+00  5.9079203047199949e+00  9.0888990855853518e+00  3.4418524265829724e+00  1.0923611463862404e+00  9.5548694913950776e+00  5.9832984768722977e+00  9.1378369360460532e+00  1.3795061943066826e+00  9.2944826735446853e+00  8.7011084171631321e+00  9.0101475311072061e+00  8.8423562862367735e+00  6.0225826669135225e+00  8.8456448872142346e+00  7.9210545687553537e+00  8.3915396901698678e+00  3.7365353296238593e+00  3.4187054337128999e+00  9.4324645748966649e+00  9.3175430795609255e+00  5.2628255331728422e+00  4.6019131344226398e+00  9.0786908185128894e+00  8.9692515181317543e+00  7.0536004875948777e+00  3.2335832044481969e+00  2.8045581286460051e+00  6.8634987185555296e+00  8.8319272597545613e+00  9.3244030755666323e+00  9.3005722633323895e+00  9.7435998975523948e+00  9.8900906551372909e+00  6.0341682899231825e+00  9.7473499860999766e+00  9.8725006793369072e+00  9.6536244170433747e+00  9.6852296694518110e+00  1.0741465878775098e+00  1.2201102189210951e+00  2.7755593207409475e+00  7.7201365607418539e+00  2.5844213200828801e+00  1.3389980404575463e+00  1.1892745758571304e+00  2.2572623878542459e+00  2.2350301362998217e+00  9.8744628367343807e+00  7.4265882966764210e+00  5.0692212814164437e+00  9.2615471779868344e+00  8.3714513289743415e+00  8.6559460434507454e+00  8.0301433594880400e+00  2.9682713313935873e+00  9.1759990308152304e+00  8.8705032533491703e+00  6.7763175023061386e+00  7.1694437538501505e+00  1.0296666483661050e+00  9.4866311021991621e+00  9.8773821221398386e+00  9.8906452289225282e+00  9.8539743808804587e+00  5.5802229889948887e+00  6.0939815466301264e+00  4.9325283199234207e+00  9.0723413596310341e+00  9.7018717439095763e+00  7.1802809694119478e+00  9.1867092515597566e+00  9.0617568816099894e+00  8.0617666582707699e+00  9.3798510925745138e+00  7.9795996881400511e+00  4.5873684213107770e+00  9.6888490911407086e+00  7.2741782345943173e+00  9.7424037799666099e+00  2.2328566030349588e+00  9.8907048950978869e+00  8.7968315509390971e-01  5.7168343517090143e+00  9.6119749929772293e+00  9.5325222567092673e+00  9.5177383657099117e+00  8.4170762909607770e+00  2.7331793826241646e+00  8.5816749516147839e-01  9.7676723374151369e+00  9.9234388610883038e+00  7.3033871636465113e+00  9.1751958600516357e+00  9.4455361576421364e+00  9.3355570050373746e+00  9.9236410986720625e+00  9.7802328374922496e+00  9.1362353291737488e+00  8.8854757873755759e+00  6.3823735841335338e+00  3.1112136247806843e+00  2.6770434320008212e+00  4.1706061400624179e+00  9.9235500176998581e+00  8.2245178171831779e-01  8.2294460993644103e-01  9.9233391712571333e+00  9.9232663859236929e+00  8.7501180318210032e+00  1.0556132395947608e+00  9.9232804145443758e+00  9.6598009859145026e+00  9.5107150500838493e+00  8.8556484966842373e+00  8.9872794926116324e+00  9.6338626092388218e+00  9.2706327537069200e+00  9.2129291068480565e+00  8.6016930700151182e+00  8.7978405341487687e+00  8.5778340335047998e-01  3.9365358750991017e+00  9.6520619254828972e+00  7.6446609261469547e+00  8.0987896042058924e+00  6.0762786878133310e+00  8.5831960828506340e+00  8.9889260684665384e+00  5.7869845540957909e+00  7.4260845961296438e+00  6.8557576530855826e+00  7.7784802389828434e+00  9.5050605902896006e+00  9.3403610799366632e+00  9.7914050964531167e+00  8.6136376383921576e+00  5.7324480506541660e+00  2.4836851718515982e+00  7.3729402877668733e+00  9.6870176777437553e+00  9.8084179567810281e+00  1.0921344438056724e+00  9.7062175748950830e-01  9.4907720309712573e+00  9.6442700864070812e+00  7.7973127403053022e+00  9.6293974619506315e+00  8.1959291826509233e+00  9.1055140361415177e+00  9.4651761298008026e+00  6.4339255257163623e+00  5.3705232902055071e+00  8.4657988422968558e+00  8.5694359659983093e+00  8.4092395618545126e+00  8.9090105052357753e+00  5.3498376705972079e+00  4.4233314402209878e+00  4.7985268286445857e+00  4.4890117408857755e+00  5.4320451697606318e+00  5.2619453414078530e+00  8.3756675928078490e+00  8.5903055771103549e+00  7.9449163642062857e+00  9.4137649484775654e+00  9.0933414586412766e+00  4.1822845605862415e+00  5.3738750973555627e+00  9.7042677566514293e+00  8.1570116881268291e+00  9.3057024515583304e+00  9.4630064879237032e+00  9.3329749217267199e+00  6.3842571728570672e+00  9.0319428555817769e+00  7.3538631436027799e+00  7.3800059727689966e+00  8.9355185773201047e+00  8.6192910288350237e+00  8.8689740879260075e+00  9.0183685639316593e+00  8.3608021542592574e+00  6.8788683406224882e+00  6.6284105866381928e+00  9.7895991602882617e+00  9.9261892046217124e+00  9.1810303924772825e+00  1.1533822148567034e+00  8.1033526218401146e+00  9.3555775437870921e+00  7.2056155791037133e+00  9.7970575430125368e+00  6.4587920608680927e+00  9.1583257892889343e+00  7.7613453198082407e+00  6.3031000736404135e+00  9.9169904319312057e+00  1.3493192190678975e+00  8.9206816957204644e+00  9.5601548759733230e+00  9.8579223549036765e+00  8.2065728424389617e-01  9.7511031608938001e+00  7.9399221262359605e+00  7.1422034469743600e+00  4.0136989159486216e+00  1.0327706266398080e+00  9.1072229184467570e+00  2.6798718260262415e+00  4.1858563947570966e+00  4.2571569381074843e+00  8.6852603152991783e+00  8.6890885798387387e+00  9.6338971238650633e+00  9.6044476168763726e+00  9.0862888169548111e+00  1.0000000000000000e+01  6.4871045582897136e+00  2.4613233190543107e+00  9.4709555833517776e+00  7.4466554162050294e+00  6.8532154882079190e+00  8.3932156163011964e+00  4.5416712703538753e+00  3.9242345934104566e+00  9.5024063871988318e+00  9.6726669905135303e+00  5.4899635423168123e+00  5.3095358708895990e+00  9.1750010727645996e+00  6.7450744976980896e+00  8.9486112847238513e+00  6.5213667133512336e+00  8.1248577849007688e+00  7.8508996433706058e+00  8.3704902384462958e+00  1.0000000000000000e+01  9.8384617533121119e+00  9.4495545345720817e+00  9.3656408460469542e+00  1.9009829155262068e+00  9.6373863310906831e+00  9.5164502758370109e+00  9.1480278359868574e+00  8.5236029154606889e+00  3.9263563161788237e+00  9.9224724249833915e+00  8.0183013328614496e+00  7.6726565480198863e+00  3.5761464281787299e+00  2.4037220399727222e+00  9.3459443166580236e+00  9.5517517622461163e+00  7.8817262488115434e+00  8.6863948451785955e+00  8.9472562524868593e+00  8.9681960545964685e+00  8.8653870044953429e+00  4.5540023741439208e+00  9.5114598191245676e+00  0.0000000000000000e+00  4.2760142918300934e+00  5.0453121728765185e+00  8.2679114987577513e+00  6.4853169050746731e+00  7.1695706071669036e+00  9.8104214611207414e+00  9.3028867847025225e+00  9.3632247357540166e+00  8.3527620060433900e+00  9.2785088890259226e-01  9.6282515103433468e+00  8.1952279905244527e+00  8.5345314811124471e+00  8.5504882398710151e+00  1.0000000000000000e+01  9.5915222117293197e+00  9.4954726643626906e+00  9.6105818922994626e+00  7.0004680301643729e+00  9.9266475734713513e+00  9.8169116459429357e+00  9.9146202784033193e+00  0.0000000000000000e+00  9.9267651041398057e+00  8.2233179549714102e+00  3.0780582045059561e+00  3.9204069511677164e+00  9.1831817625712731e+00  9.1888034677633197e+00  9.2521116873613458e+00  9.2298010818643714e+00  9.9187643351126411e+00  9.7843134201932891e+00  8.9674865500823646e+00  8.8106174213130526e+00  2.0261975848508458e+00  7.7631922408735523e+00  8.7751573103416227e+00  7.5512740751635059e+00  6.0094431330121312e+00  2.9036670466561372e+00  4.0964448970682534e+00  2.8122054251907036e+00  7.2235124091411347e+00  9.6361424917484335e+00  4.7354501107548748e+00  9.3022000454910074e+00  0.0000000000000000e+00  5.4459530172998303e+00  9.9210173914862008e+00  1.6078077800744652e+00  9.2385544977393170e+00  8.7280471908016661e+00  6.9114780294212323e+00  9.0293552363054417e+00  8.7367343375833180e+00  8.4246206001948032e+00  8.5968971912566836e+00  9.3532687457203707e+00  9.9232819381966042e+00  2.5487536550785932e+00  9.7708904916964645e+00  8.7650624009965945e+00  9.9249138344241548e+00  8.9250399392367932e+00  9.2215202901153575e+00  8.6100535406346363e+00  5.1881929452904503e+00  8.3236283498521804e+00  1.0000000000000000e+01  8.7812185188358942e+00  2.8563684443153696e+00  9.1586263097906393e+00  3.5317987426424859e+00  8.1954067333126215e+00  9.7688601110862763e+00  9.4122389005221745e+00  3.1654807555903250e+00  2.9153489283575378e+00  7.1256503803851512e+00  2.4085354004183070e+00  5.1609482638665334e+00  5.8738046799429249e+00  5.5019784672672003e+00  6.2991640822998720e+00  6.1186883869882491e+00  9.9231275950413647e+00  1.0000000000000000e+01  3.4924815929746917e+00  8.7870253246444161e+00  9.5618990739269503e+00  9.3883978593501602e+00  9.3165245701973518e+00  9.4598820951378002e+00  9.8231295520575959e+00  7.9436539986089283e+00  9.7148405753693812e+00  7.6890327305247164e+00  7.9301965849715588e+00  9.0889601970930265e+00  9.7967244635799400e+00  8.9028233642134129e+00  6.9272389117822488e+00  9.6030594333726214e+00  8.1832468084327523e+00  8.9590521644030705e+00  9.6119183838076001e+00  9.5801004192917443e+00  8.7519877532798311e+00  0.0000000000000000e+00  9.8007559516915190e+00  0.0000000000000000e+00  9.5568773540216974e+00  8.4170742528046372e+00  6.3920851697838668e+00  6.4288625827631893e+00  6.4953712565520219e+00  9.2305872578831867e+00  8.1465227767943293e+00  9.4864728094650346e+00  3.3242409362044096e+00  7.8339535987228643e+00  9.6627391174551764e+00  9.4322373070558410e+00  3.4418504457996968e+00  8.1566420186665365e+00  8.1972902947291821e+00  8.7270383260332931e+00  9.7426019672803825e+00  9.5031828725062724e+00  9.2582470988428760e+00  9.1140586698659778e+00  9.6486183059393316e+00  9.8503433969996461e+00  9.9268136698908336e+00  9.4109375974628016e+00  1.9527233387240461e+00  8.5996450913794735e+00  9.0079144297756131e-01  8.8774097294052368e+00  9.9268750204672997e+00  1.0000000000000000e+01  1.0000000000000000e+01  9.7805419001396636e+00  7.2748776728814786e+00  9.6337647632624179e+00  0.0000000000000000e+00  8.2068975288168133e-01  8.7512322081829392e+00  0.0000000000000000e+00  1.0000000000000000e+01  6.3851765124172832e+00  9.7805519850189508e+00  1.0000000000000000e+01  9.3361504322008741e+00  9.1756736069528806e+00  1.0000000000000000e+01  1.0000000000000000e+01  1.0000000000000000e+01  0.0000000000000000e+00  0.0000000000000000e+00  0.0000000000000000e+00  8.4175195195591606e+00  0.0000000000000000e+00  7.2767825520414711e+00  9.4866744287307068e+00  0.0000000000000000e+00  2.4256746028757683e+00  2.4262430366727683e+00  0.0000000000000000e+00  5.2610979513439737e+00  8.9897956165984318e+00  0.0000000000000000e+00  9.3357257840786350e+00  1.0000000000000000e+01  1.0000000000000000e+01  9.9268395151362530e+00  0.0000000000000000e+00  8.9900857081865002e+00  0.0000000000000000e+00  8.4161816558153397e+00  1.0000000000000000e+01  1.0000000000000000e+01  5.5543138590245595e+00  9.4332319361063739e+00  7.1301298651163747e-01  9.0699466043857058e+00  8.9547176508790951e+00  9.5333701802373820e+00  7.7909267308683132e+00  5.2829788222869647e+00  5.7387272406614533e+00  4.8158441017617593e+00  9.7679457852378384e+00  4.2775325480640003e+00  7.7337019296380560e-01  3.7017002921299613e+00  9.6702684849916434e+00  1.6550860896946786e+00  2.0537123414269960e+00  8.0711368767354108e-01  1.6659416176837913e+00  1.2280606878561178e+00  1.8317662410230533e+00  1.7056232349372835e+00  9.7751459489201569e+00  9.6948455713731665e+00  5.5353280180024376e+00  8.8893296849949870e+00  9.9192424223092299e+00  2.3848446845439675e+00  9.1380594440531784e+00  8.0868726048000124e+00  3.5241464651303240e+00  7.8198668273143355e+00  6.5239783664011828e+00  7.4647696579098746e+00  9.4522407119300293e+00  9.8115451944668752e+00  5.1558161638389954e+00  9.7319225784994039e+00  9.6661814091681322e+00  9.2285967735496577e+00  7.3037711472279732e+00  8.4940106771070454e+00  9.2921920740335633e+00  6.0948867180665953e+00  8.7903465752036656e+00  9.7683598984524913e+00  6.4931960645265798e+00  9.0950412899846551e+00  9.5936814233235825e+00  9.4719401210435112e+00  9.5802589517867265e+00  7.9057414919815494e-01  6.0528509649202302e+00  5.5109802710159919e+00  4.9462837308671403e+00  3.3818223690221827e+00  4.1921773435969536e+00  8.0004843582323719e+00  8.7138805005543389e+00  8.5302174637636359e+00  9.4802525459748992e+00  9.8543648187593345e+00  9.8021465340296778e+00  9.4028478736335046e+00  9.3609695192925653e+00  7.8634082790712272e+00  8.7284116993745595e+00  3.1131523268785353e+00  3.5582635805169596e+00  4.5821235172708068e+00  4.1651212095277508e+00  4.8936970739685259e+00  4.6788004044604392e+00  4.3229827653003223e+00  9.1288742246569115e+00  9.1060022405203860e+00  7.7588151963978031e+00  8.9788637408747221e+00  9.7599144534034821e+00  7.1966658315161496e+00  6.5698349801391576e+00  9.9348925088727054e+00  9.6691061681682910e+00  9.7115098945291116e+00  8.8071720764264896e+00  2.3675603187350496e+00  9.1476013601363260e+00  8.5143582240031890e+00  7.1339710436328510e+00  9.2870583555405535e+00  9.4922926526586036e+00  4.3861236658185216e+00  9.6298455270864167e+00  9.5721676020725610e+00  9.4783731360164261e+00  9.9238873794686988e+00  9.7091167502386924e+00  9.7347014298215466e+00  9.8052968716531890e+00  9.6427588826170112e+00  6.8335479810315256e+00  2.9323280221113688e+00  4.1590502663377631e+00  9.9265475888142962e+00  6.9670449525049305e+00  4.1878871009648373e+00  9.1565104460837929e+00  9.2992820310780964e+00  8.2680855909485054e+00  7.5201942717543808e+00  8.4678032254637152e+00  5.3755138338815502e+00  5.6253260638934943e+00  5.2244823237145930e+00  6.5467955594591798e-01  6.7396429690337527e+00  9.5780425218434377e+00  9.4915305816845876e+00  3.6354051946579782e+00  9.8198356702722513e+00  9.5031756300358747e+00  9.6463402327159304e+00  9.3774700418369008e+00  9.0900474877602608e+00  4.2726855935500323e+00  3.7127000232238756e+00  2.9865601209972144e+00  3.1970917002104375e+00  8.9893060007294050e+00  9.46650