<?xml version="1.0"?>
<VTKFile type="UnstructuredGrid"  version="0.1"  >
<UnstructuredGrid>
<Piece  NumberOfPoints="2513" NumberOfCells="4852">
<Points>
<DataArray  type="Float64"  NumberOfComponents="3"  format="ascii">-1 1 0  -1 -1 0  1 -1 0  1 1 0  0 -1 0  1 0 0  0 1 0  -1 0 0  0 0 0  -1 -0.5 0  -0.5 -1 0  -0.5 1 0  -1 0.5 0  1 -0.5 0  0.5 -1 0  1 0.5 0  0.5 1 0  0.4166666666666666 -0.4166666666666667 0  -0.4166666666666667 0.4166666666666667 0  -0.25 -0.5 0  0.5 0.25 0  -0.4861111111111112 -0.06944444444444445 0  0.0732758620689655 0.507183908045977 0  -0.625 -0.625 0  0.625 0.625 0  0.7380952380952381 -0.25 0  -0.7099116161616161 0.2105429292929293 0  -0.25 0.7380952380952381 0  0.105392156862745 -0.6348039215686275 0  0.6770833333333334 -0.6770833333333333 0  -0.6770833333333334 0.6770833333333334 0  0.3472222222222222 -0.06944444444444446 0  -0.7264957264957265 -0.3044871794871795 0  0.3141940982507127 0.7297313660835709 0  0.02049587951122483 -0.3227479397556124 0  -0.2690972222222223 0.1475694444444444 0  0.3859500089908372 -0.7274430156831472 0  -0.2228477945123298 -0.1761765495248019 0  0.2182539682539683 0.1884920634920635 0  0.75 0.375 0  -0.145442219440968 -0.7602211097204841 0  0.7088913690476191 0.0427827380952381 0  -0.75 -1 0  -1 -0.75 0  1 0.75 0  0.75 1 0  -0.7439982703698937 -0.04614153195464455 0  -0.4609235096577606 -0.3356498099556895 0  0.4063134471431929 0.4895621842856023 0  0.25 -1 0  -0.25 -1 0  -0.75 1 0  0.75 -1 0  -1 -0.25 0  -1 0.25 0  1 -0.25 0  -0.25 1 0  1 -0.75 0  -1 0.75 0  0.25 1 0  1 0.25 0  -0.4041423272138783 -0.7597141090712928 0  0.06500839607911253 0.7578103030529481 0  -0.1572801182352047 0.3838997021864289 0  -0.6528005242053915 0.4409494757946086 0  -0.4930160984848485 0.1544744318181818 0  -0.4732142857142858 0.7752976190476191 0  0.6398809523809523 -0.4538690476190476 0  0.5166054117396399 -0.2161233620965164 0  -0.002273787244753427 0.2232363985975174 0  0.1500564496765022 -0.1524955293952667 0  0.2016720420046758 -0.4410343282803009 0  -0.08495178036419618 0.6274139771124571 0  -0.8367311471133162 0.3642591720794645 0  -0.8333333333333334 -0.625 0  -0.594323836800685 -0.8231079456002283 0  -0.4466957714776065 -0.5349126855671806 0  0.8125 0.5625 0  0.78125 0.78125 0  0.5091392650016769 0.7947130883338923 0  0.125 -0.8382681931833136 0  -0.8184523809523809 -0.8184523809523809 0  -0.07781530426104531 -0.5819319697006881 0  0.5085055196703295 0.04967610411902112 0  0.2918471072074933 -0.276017202318847 0  0.5120763537765269 -0.5898771553229597 0  0.625 -0.8585349462365591 0  0.8158532234335381 -0.8158532234335381 0  -0.5198088446315396 0.5739411553684605 0  -0.8585349462365591 0.625 0  -0.8150493805516597 0.8156205699829586 0  0.8585349462365591 -0.625 0  -0.2688268348649726 0.5439331383603209 0  0.8242100426758139 -0.4436043596336612 0  0.5833756314287952 0.4479378157143976 0  0.8690476190476191 -0.125 0  -0.125 0.8690476190476191 0  -0.8692745600729823 0.125 0  0.8696725120759167 0.125 0  -0.625 0.8711516477451908 0  0.2339522463269718 0.3879558377955778 0  0.2453709502295031 0.5655822922838026 0  0.1730610651637797 0.02021709580868947 0  0.3245402594056757 -0.5644672020485209 0  -0.7291666666666666 -0.4816595441595442 0  -1 -0.375 0  -0.5811140848639904 -0.2127276307675001 0  0.673332592838314 0.2158348143233718 0  0.375 1 0  -0.5714768890989919 0.2985103444040069 0  -1 -0.125 0  -0.8453692574786325 -0.1875 0  -0.3144549134065865 -0.02408675326008025 0  -0.2898414972096258 -0.3336092734780093 0  -0.1075052092206287 -0.4224330421314983 0  -0.05043970703604117 -0.1652278959397459 0  0.6459672950297897 -0.1113415301525317 0  0.4645210271029513 0.6398480556579343 0  0.3512863754411909 0.0937979496253573 0  -0.6063160985568274 0.03891469652249891 0  -0.3428819444444445 0.8690476190476191 0  0.625 1 0  -0.1602164796159982 0.02697860906625157 0  0.04648110064133829 -0.4808416424239687 0  1 0.875 0  -0.3836102479201657 0.6484936449177356 0  -0.3776011723096096 0.263078478984336 0  -0.6024978259969829 -0.3949628096211138 0  0.125 1 0  0.2010781308272777 0.8456221018461906 0  0.2822509696388829 -0.845902544691141 0  -0.3285533674953515 -0.6289773550938936 0  0.3461306793221754 0.278777492464833 0  0.4737475672408696 -0.8508448959534423 0  0.2384632828836344 -0.7029523187242811 0  -0.004777287059791593 0.3759269695907358 0  -0.8499735021850066 -0.3912320205328522 0  0.1222536293721587 0.2963971539625205 0  -0.3769456520999688 -0.203572526805711 0  -0.2749617205755651 -0.8464290792698902 0  0.004805888512766143 -0.747174355248311 0  -0.125 -1 0  -0.06001061822252458 -0.8724007765244854 0  0.875 0.4375 0  0.854421179608893 0.271342359217786 0  0.875 1 0  -0.1499861095763589 0.2358309656934888 0  0.3381943639137225 0.8663061796405532 0  -0.7853090110442228 0.4998412775277108 0  0.7398165998560814 -0.5535192694951373 0  0.1580042122341573 -0.3100246140259917 0  -0.7291666666666667 -0.7142857142857142 0  -0.375 -1 0  0.6483368386154684 0.8514905990110488 0  -0.1295370103291928 -0.2826118305021242 0  0.07458201853700455 0.1123894386563915 0  0.6146465857036327 -0.3161203659316075 0  0.5551898493894731 -0.740296118159085 0  0.375 -1 0  0.482702798370208 -0.084133350091034 0  0.87890625 0.68359375 0  -0.05917195534525846 0.4971092425697621 0  0.1260710309213975 0.6343750312956699 0  0.8690476190476191 -0.3077066815262848 0  -0.2912010232560567 0.3668168386732139 0  -0.875 1 0  -1 0.875 0  1 -0.875 0  0.875 -1 0  -0.8689564281364567 -0.006189266075306407 0  -0.7449425635110547 0.08458938160051771 0  -0.7150266761936593 -0.1739444581417552 0  -0.5260034831318311 -0.711099823962112 0  -0.4724626808827322 -0.871722230709409 0  0.4734436795977052 0.377714794132168 0  -0.875 -1 0  -1 -0.875 0  0.6927189078571988 0.5156567235715964 0  -0.3742497615796874 -0.4296005251260107 0  -0.1969436423297711 -0.6387157229772615 0  -0.6179496409766825 -0.08933356056510935 0  -0.424405057115988 0.04452428810878029 0  -0.08479048335844169 0.1279607007132633 0  0.003830300099055113 0.8712085230656206 0  0.8748778838820267 -1.379218479898026e-05 0  -0.375 1 0  -0.625 1 0  1 0.125 0  -0.125 1 0  1 -0.375 0  1 -0.125 0  1 -0.625 0  0.625 -1 0  0.125 -1 0  -0.625 -1 0  -1 -0.625 0  -1 0.125 0  -1 0.375 0  -1 0.625 0  1 0.375 0  1 0.625 0  0.6325660748712082 0.3335187599557389 0  -0.06420945895056573 0.7549874027425891 0  -0.8769015540914771 0.2478802253893416 0  0.871875 0.871875 0  -0.6868091492840067 0.3270978624973681 0  -0.5363597469565949 0.412994850055505 0  -0.6803734992638302 0.5574295000651103 0  -0.7076253581162534 -0.8803439094224437 0  -0.8778089002295137 -0.5106896447504627 0  -0.3860184984222981 0.530566778071246 0  0.6109900617121508 0.1128453077697081 0  0.3896945134930274 -0.1915382873255086 0  0.7605656944697778 -0.06822134873122943 0  0.3576151269893478 0.5948388411612135 0  -0.5689902680792265 -0.5143596830118065 0  0.6262446286847614 -0.5735657901943212 0  0.2030558252325225 -0.5625263842513452 0  0.6123273142928579 0.7407533260723429 0  0.4016460890123554 -0.3042863223111857 0  -0.59039693199147 0.7578418819188018 0  0.7276932493917544 -0.3705808024528924 0  0.5222536818742854 -0.4713886230400014 0  -0.5101986527137737 0.8848365765607674 0  0.510560172809238 0.5356013299918891 0  -0.3603569195756083 0.75823710606415 0  0.1967279277813232 0.728226870058472 0  -0.6086880986371127 0.1545624071548516 0  -0.38105366729386 0.1511189987807864 0  -0.2944659463671584 -0.7359061804869591 0  0.5060729154966499 -0.3475227845833823 0  -0.09281616240412746 -0.06197858250969457 0  0.7649739583333334 0.6673177083333334 0  0.7628906249999999 0.890234375 0  -0.2666864184909611 0.2585504071132311 0  0.3635064892129658 0.3878003602709461 0  -0.2339409722222222 0.8901937905844155 0  -0.1718792125974916 -0.8957733325456778 0  0.1001768566329531 0.4023510017391879 0  0.3120260172693757 -0.4540546875576884 0  0.7804062804433681 0.1896628610854537 0  0.4087715451998049 0.187961780041608 0  -0.1584963477271457 0.5451611892421655 0  -0.8926817849258324 0.463022006336401 0  0.2338091473445219 -0.07576267331277289 0  0.08171112182813692 -0.2349087687359925 0  0.04635385178956847 -0.1044635073718474 0  -0.4377391632114205 -0.6448874471423088 0  -0.1907678351227189 0.6480215912813945 0  0.300605946475244 0.4741444604171038 0  -0.2145033720757486 -0.06751709909419711 0  0.6069191921170397 -0.005492331448357812 0  0.0214718770761248 0.6032397936031719 0  0.5476675683364878 0.8992752415326501 0  0.4387475014316537 0.9093708953002239 0  -0.4932997685306436 -0.4381009159993523 0  0.2515197695339056 -0.1791673369138964 0  -0.7291666666666667 -0.6088789682539681 0  -0.9166666666666667 -0.6875 0  0.620579540363709 -0.2122431523583302 0  -0.484950136419973 0.6719440339397442 0  0.2857044415400258 0.0137589173127316 0  -0.8945708364098356 -0.288306105327986 0  0.4043102720140535 0.7842914560451557 0  0.04123256238752064 -0.9026968245801402 0  0.2003676884403109 -0.9091888601740487 0  0.1068775558538842 -0.7373377130403223 0  -0.4804566783514427 -0.1763307203045643 0  0.108286342087769 -0.3993789328997278 0  -0.191883080105361 -0.3640821726430649 0  -0.07025064492006244 0.2984876656890053 0  -0.7039324641409584 0.788312126296613 0  -0.7311286585775438 0.8932502354831682 0  0.5171409396884947 0.1503852691889257 0  0.4229392823658633 -0.003216522184234835 0  -0.5621736087218259 -0.919558629836806 0  -0.626474064879544 -0.7266572613636506 0  0.2446828746617422 0.2867616783302419 0  0.1759429608742923 0.4776611759306416 0  -0.3468240303741654 -0.5260416435617549 0  -0.7465808808425306 0.4069574477998361 0  -0.7819962170660292 0.2802441065650652 0  -0.3742623214119594 -0.8547800509641984 0  0.1014498009713561 0.8506721983266377 0  0.4285217620918213 -0.5230190595570253 0  0.4091738370487775 -0.6256346204225141 0  0.78125 0.46875 0  0.90625 0.53125 0  -0.4791801348852565 0.2553992655702126 0  0.7843318610782772 -0.7086046956885941 0  0.8909728264971901 -0.7355183796514634 0  0.7041908166528879 -0.7830649143180282 0  0.7311821352
[...]
<PointData  Scalars="velocity-2"> 
<DataArray  type="Float64"  Name="velocity-2"  format="ascii">0.0000000000000000e+00  0.0000000000000000e+00  1.0000000000000000e+01  1.0000000000000000e+01  3.6949016335731222e+00  1.0000000000000000e+01  3.6944821132064098e+00  0.0000000000000000e+00  3.6949490950228765e+00  0.0000000000000000e+00  1.7045593633998748e+00  1.7046784310024830e+00  0.0000000000000000e+00  1.0000000000000000e+01  6.4303890945780831e+00  1.0000000000000000e+01  6.4306337299687346e+00  5.9083370474513055e+00  2.0059088596527421e+00  2.6374859153180759e+00  6.4312678170198598e+00  1.7544204165404893e+00  4.0385700296980627e+00  1.2664912643834543e+00  7.2635692295154666e+00  8.0596165647863796e+00  9.7508314639103566e-01  2.6374651557474866e+00  4.1948444149447761e+00  7.6254978896256631e+00  1.0872804377321066e+00  5.4929718424947742e+00  9.1871170627424137e-01  5.3025178469606127e+00  3.7893288995685359e+00  2.5626627787327334e+00  5.7221324184093945e+00  2.7451460677298578e+00  4.7729167213106942e+00  8.1452308288110338e+00  3.0608527110453818e+00  7.8505526625427811e+00  8.3884363287985497e-01  0.0000000000000000e+00  1.0000000000000000e+01  8.1450855451249691e+00  8.5919976959131117e-01  1.8449864461786272e+00  5.8448830801291791e+00  4.9435427331336568e+00  2.6372520745332593e+00  8.3893207414002879e-01  8.1447157524849221e+00  0.0000000000000000e+00  0.0000000000000000e+00  1.0000000000000000e+01  2.6377063893554253e+00  1.0000000000000000e+01  0.0000000000000000e+00  4.9439492508190357e+00  1.0000000000000000e+01  2.0518403882457834e+00  3.9989039155982469e+00  3.0113702493994738e+00  1.1705102266971745e+00  1.7296249798220935e+00  1.8006394212942038e+00  7.3656648219577256e+00  6.5387110707055527e+00  3.6847246080202307e+00  4.4175562980207781e+00  4.6845938476735949e+00  3.3173256478829587e+00  5.4633462262244847e-01  5.5776970531413095e-01  1.3728932661542246e+00  1.8964467002963312e+00  8.6007162102323651e+00  8.3720682088582770e+00  6.4897644675941226e+00  4.2920659601006816e+00  6.0780123524955976e-01  3.3485536897978796e+00  6.4856854960941641e+00  5.1760819783243548e+00  6.5090211973025252e+00  7.2635801004320397e+00  8.6252372246494708e+00  1.6343936825476608e+00  4.7313435133379966e-01  6.1923297819742096e-01  8.9407339367358922e+00  2.5638300281782755e+00  8.6866311699567156e+00  6.9804003907550625e+00  9.0187985217908846e+00  3.1461519066945813e+00  4.3709348737190479e-01  9.0233588594921006e+00  1.2663815233630891e+00  4.8570301526754411e+00  4.9185567559472805e+00  4.5354739783712876e+00  5.3617982388445613e+00  9.0958740543389893e-01  0.0000000000000000e+00  1.4189185509277280e+00  7.5992403362170551e+00  5.6559198416581360e+00  1.4524328765787540e+00  0.0000000000000000e+00  5.1734552449267313e-01  2.3876788120406514e+00  2.4823239575350819e+00  3.2206285636477414e+00  3.4683920583760157e+00  7.4082983781924749e+00  6.2056051321384533e+00  5.5167325650421439e+00  1.3310435784552224e+00  2.2799414674255472e+00  7.2632337045731674e+00  2.9995040924838530e+00  3.9107243630919664e+00  1.0000000000000000e+01  2.1276354904682400e+00  2.1500538693980555e+00  1.3443821932884585e+00  4.2912793884266769e+00  4.6820383091132207e+00  5.1218909088297746e+00  2.3342062867826567e+00  5.4871849000306261e+00  6.2634666787742974e+00  4.8815862623728004e+00  3.6732473944603172e+00  5.0186068596754296e-01  4.2783707989234339e+00  2.1523384261839400e+00  2.5399219687016319e+00  3.7168623136387824e+00  3.1462595770258193e+00  3.4259850411968151e+00  9.0630756096785969e+00  8.9101935405931094e+00  9.0631405479724787e+00  3.0416967268589330e+00  5.4406314984717570e+00  7.1954501257672843e-01  8.0719924488405130e+00  4.4584446237893767e+00  9.0964415395111897e-01  2.1595716990440210e+00  7.4246251816884419e+00  3.1272569806977031e+00  4.0451486200644480e+00  7.1924043425861290e+00  6.7918162853153099e+00  5.6563108270260809e+00  6.3202075695244675e+00  9.0922560664297123e+00  3.4300299893221671e+00  4.2971518018748878e+00  9.0187783714487573e+00  2.4770903893046490e+00  4.1788558595377068e-01  0.0000000000000000e+00  1.0000000000000000e+01  9.0629322841035638e+00  4.3818525367092032e-01  8.5604180440591426e-01  9.5768984854011496e-01  1.6124727869192312e+00  1.8034337777744622e+00  6.2615981736096398e+00  4.1790369877512451e-01  0.0000000000000000e+00  7.7358576999079203e+00  2.1624840065759567e+00  2.8493186079375010e+00  1.2908509226276688e+00  1.9776182547604271e+00  3.3181308710898509e+00  3.7127940505605781e+00  9.0621692995868024e+00  2.1592465146939550e+00  1.2663542418150924e+00  1.0000000000000000e+01  3.1463314707489975e+00  1.0000000000000000e+01  1.0000000000000000e+01  1.0000000000000000e+01  7.2631843497011435e+00  4.2913379666029199e+00  1.2663768429232196e+00  0.0000000000000000e+00  0.0000000000000000e+00  0.0000000000000000e+00  0.0000000000000000e+00  1.0000000000000000e+01  1.0000000000000000e+01  7.3156467007554777e+00  3.4077242316646030e+00  4.1152907249639614e-01  9.0397420024790556e+00  1.0538738339910265e+00  1.5757957839614083e+00  1.0759472320821490e+00  9.8294968791712645e-01  4.0849820183467228e-01  2.1187068221013390e+00  7.1677144417874645e+00  5.7452697834252975e+00  8.2216450482211112e+00  5.5542473324005943e+00  1.4612915752318214e+00  7.2718866136260747e+00  4.6920845934666673e+00  7.1767166448912914e+00  5.8167315844318024e+00  1.3864492831799058e+00  7.9847809754053269e+00  6.5753418841848408e+00  1.6685880086631946e+00  6.4993156836267056e+00  2.2141481020782150e+00  4.6591517024345253e+00  1.3228679458904742e+00  2.1370892725674415e+00  2.4643876242056288e+00  6.4701065652116103e+00  3.2835646690571321e+00  8.2536869488577924e+00  8.2385147199522564e+00  2.5719710756224101e+00  5.5891097298130461e+00  2.7011315039588220e+00  2.9515030858439371e+00  4.1691391526306747e+00  5.2896958604398403e+00  8.3656798451567607e+00  5.8598712437186888e+00  3.0064829539590905e+00  3.5866744244424720e-01  4.8562918461224838e+00  4.0794165111356673e+00  3.9103210890406004e+00  1.9288389160547204e+00  2.8743050504953960e+00  5.2251881703863621e+00  2.7782205566881863e+00  7.1398041264984355e+00  3.7935884005580891e+00  6.7422338034075988e+00  6.0439426503148272e+00  1.7288589467125706e+00  4.9523350666968815e+00  9.0964937025754888e-01  2.7841985632686328e-01  7.2330822170311535e+00  1.7586526192945831e+00  5.1413116617220949e+00  3.5236812660224603e-01  5.8329581148929623e+00  3.8860970510042319e+00  4.6777834116999379e+00  4.2020765295106690e+00  1.7746647247098604e+00  4.2089026157952221e+00  2.8698197858585863e+00  3.3813881329962157e+00  9.9549836765832533e-01  9.0284806096017900e-01  6.5419240365527473e+00  5.9465601655568703e+00  1.4850984492326060e+00  1.2613828783304026e+00  4.9149585619365723e+00  4.5507555725424709e+00  2.2648874109249300e+00  8.5049677450871397e-01  7.3063349163104774e-01  2.1622681297889623e+00  4.1753449922205741e+00  5.9812208260236783e+00  5.8623491608155867e+00  8.3720471662512423e+00  9.2962500417765721e+00  1.7791984331774708e+00  8.3943785053097777e+00  9.1821930704185881e+00  7.8171510507567916e+00  8.0098565213591417e+00  2.7377409011756643e-01  3.1121600274072919e-01  7.2308057077472609e-01  2.7017201490913716e+00  6.7089638437589616e-01  3.4211488700878262e-01  3.0332338269561371e-01  5.8275257999877716e-01  5.7675675900883050e-01  9.1952998752318038e+00  2.4924308319434760e+00  1.4168975570053663e+00  5.6782964297993361e+00  3.3550091375560003e+00  3.7983233816940118e+00  2.9707700598202984e+00  7.7618822868837489e-01  5.2984733675627229e+00  4.2714588773006579e+00  2.1175353728477777e+00  2.3319368602956918e+00  2.6235765027518027e-01  6.8406526533182941e+00  9.2146506703869839e+00  9.2997458948425500e+00  9.0660075063340582e+00  1.6010687546243274e+00  1.8042550212636732e+00  1.3704035022737953e+00  4.8940365325762540e+00  8.1126762151451324e+00  2.3378330972599475e+00  5.3419748425606768e+00  4.8565513621168135e+00  3.0005414538046939e+00  6.2627228090838472e+00  2.9226583010026403e+00  1.2562670043754960e+00  8.0328005176891200e+00  2.3951920471592798e+00  8.3636642236835428e+00  5.7618384541238965e-01  9.3017349929740121e+00  2.2393029882919716e-01  1.6525980287484519e+00  7.5698123890381579e+00  7.1030190319211064e+00  7.0174400205364558e+00  3.4150812362867717e+00  7.1125295777581232e-01  2.1834106324629068e-01  8.5215311229385069e+00  9.5104174085865179e+00  2.4126955567269355e+00  5.2929768012864784e+00  6.6134881504258169e+00  6.0367322781133277e+00  9.5101391870825456e+00  8.6005668416266250e+00  5.1341602348452486e+00  4.3121323354910155e+00  1.9297451396810348e+00  8.1594504044182214e-01  6.9575265600512870e-01  1.1251912307934406e+00  9.5097431555533980e+00  2.0925390630474300e-01  2.0948803852504200e-01  9.5104251184120283e+00  9.5079912475668475e+00  3.9867918228917856e+00  2.6904178543358065e-01  9.5074873435576830e+00  7.8572424854895031e+00  6.9757474124431313e+00  4.2341785755203976e+00  4.6085297561746303e+00  7.6990809913457383e+00  5.7191297200078237e+00  5.4558437372357140e+00  3.7036287067990044e+00  4.0943070786677698e+00  2.1831955898386027e-01  1.0547116506249783e+00  7.8099695280341317e+00  2.6454338007839064e+00  3.0382023197418495e+00  1.7963726263878639e+00  3.6715335240805924e+00  4.6108080540449263e+00  1.6801351713888457e+00  2.4920016962122582e+00  2.1585009966053383e+00  2.7486416610215221e+00  6.9463508115890242e+00  6.0586235617127961e+00  8.6711859152437345e+00  3.7219181491450977e+00  1.6590740459747173e+00  6.4355168283623465e-01  2.4578853926203834e+00  8.0219027807167986e+00  8.7788192016594557e+00  2.7843691972229950e-01  2.4723351485451089e-01  6.8637660443289183e+00  7.7624770642808256e+00  2.7644999455704142e+00  7.6739880758825008e+00  3.1431910071352660e+00  5.0147094850339107e+00  6.7229346154487013e+00  1.9527516261017035e+00  1.5236930927267771e+00  3.4863466750005223e+00  3.6463188229421912e+00  3.4056630628626019e+00  4.3779095310941569e+00  1.5161034907191244e+00  1.2050829390935460e+00  1.3263020945894204e+00  1.2254763228017351e+00  1.5454929892807718e+00  1.4837635559864160e+00  3.3594194070215369e+00  3.6812331874836626e+00  2.8909238700453677e+00  6.4433961891580580e+00  4.9701908192887654e+00  1.1294594076883226e+00  1.5247261852465808e+00  8.1282565985339019e+00  3.0995876319889653e+00  5.8861095657458984e+00  6.7105524352390438e+00  6.0234544598792628e+00  1.9297343502983038e+00  4.7523108906966858e+00  2.4449240074363887e+00  2.4630446066563354e+00  4.4512314762973784e+00  3.7332973545522981e+00  4.2681362478659155e+00  4.7059489759144650e+00  3.3406093584455165e+00  2.1708260419661967e+00  2.0439702942619702e+00  8.6591072484087874e+00  9.5271247386246642e+00  5.3180790289163964e+00  2.9411626489228071e-01  3.0431629557016584e+00  6.1354963446709787e+00  2.3538759015163859e+00  8.7060798043565555e+00  1.9644246161621477e+00  5.2221801575470428e+00  2.7353877168433449e+00  1.8936456700186595e+00  9.4686153361146399e+00  3.4460727932274282e-01  4.4088823344939394e+00  7.2618171279076522e+00  9.0907257733588409e+00  2.0875431073424161e-01  8.4185571110250059e+00  2.8877742934631270e+00  2.3169732299151362e+00  1.0779760221598189e+00  2.6316147469959938e-01  5.0241785266113377e+00  6.9664796623626379e-01  1.1304681448982359e+00  1.1529502823100879e+00  3.8546477468692002e+00  3.8626897106803968e+00  7.6983312225309968e+00  7.5223347666205012e+00  4.9439969998909028e+00  1.0000000000000000e+01  1.9782048717853704e+00  6.3763192654451795e-01  6.7535349756667014e+00  2.5063152859501439e+00  2.1576446937611342e+00  3.3834091343852659e+00  1.2422280924610236e+00  1.0515651408749485e+00  6.9321285537713369e+00  7.9329668441331931e+00  1.5669093681377710e+00  1.5015172224929612e+00  5.2925511557568710e+00  2.1025889414456107e+00  4.4865376871241587e+00  1.9930817870018287e+00  3.0666935671131128e+00  2.8085263123047968e+00  3.3540477393240500e+00  1.0000000000000000e+01  8.9668056479206655e+00  6.6374126626548682e+00  6.1883161539186666e+00  4.8833592421868544e-01  7.7208815885251063e+00  7.0110679192279903e+00  5.1830816082834055e+00  3.5732700447762751e+00  1.0514945823478119e+00  9.5021469812350272e+00  2.9585347498962644e+00  2.6660473214954656e+00  9.4873759438780791e-01  6.2201875404094520e-01  6.0869260253647752e+00  7.2144049095415763e+00  2.8352899977793031e+00  3.8570490952559364e+00  4.4858035951024062e+00  4.5462012314966413e+00  4.2585744030771941e+00  1.2460071996352382e+00  6.9818061788359209e+00  0.0000000000000000e+00  1.1586631003834555e+00  1.4088032324865996e+00  3.2247016885077118e+00  1.9770498686514806e+00  2.3325154733140292e+00  8.7904856144475012e+00  5.8718958787709781e+00  6.1744075780432430e+00  3.3298509211951068e+00  2.3630155941192904e-01  7.6641085727703286e+00  3.1406616273702346e+00  3.5911379331520643e+00  3.6148430905304911e+00  1.0000000000000000e+01  7.4451187629515507e+00  6.8930948878939500e+00  7.5603900384807519e+00  2.2365434837080662e+00  9.5303313711674846e+00  8.8312552154643615e+00  9.4531374388217326e+00  0.0000000000000000e+00  9.5302592157366881e+00  3.1724898194009610e+00  8.0673175927608476e-01  1.0499763769835830e+00  5.3277811130461270e+00  5.3516877290801119e+00  5.6313886032366192e+00  5.5306782829107828e+00  9.4797151757851488e+00  8.6252509114409719e+00  4.5462979660717231e+00  4.1221302824227726e+00  5.2146673609565919e-01  2.7372801245470346e+00  4.0437840871753190e+00  2.5776811043977417e+00  1.7699412132678993e+00  7.5831866379759805e-01  1.1034011072905305e+00  7.3319932120576126e-01  2.3647527392784844e+00  7.7124096068436456e+00  1.3051335897397596e+00  5.8690516327103355e+00  0.0000000000000000e+00  1.5513983940549239e+00  9.4934719610718350e+00  4.1174241405290857e-01  5.5734980295763448e+00  3.9419909289222170e+00  2.1880811194961285e+00  4.7420254222985445e+00  3.9599451839069642e+00  3.4266434628584177e+00  3.6936271242800829e+00  6.1256120337861359e+00  9.5081629741921905e+00  6.6127718202644670e-01  8.5414815434775395e+00  4.0221902960737230e+00  9.5198423685104103e+00  4.4209924551253197e+00  5.4916817204030570e+00  3.7169526954501184e+00  1.4588192265896309e+00  3.2925578231458315e+00  1.0000000000000000e+01  4.0565413947184759e+00  7.4534799732930301e-01  5.2256571434599799e+00  9.3581624528962726e-01  3.1416878138993001e+00  8.5287361194310591e+00  6.4336327484791518e+00  8.3130836731759117e-01  7.6138613824014378e-01  2.3070311892605697e+00  6.2347277065496731e-01  1.4493030320761047e+00  1.7150916485661352e+00  1.5718498365424793e+00  1.8923494055935377e+00  1.8153022399947232e+00  9.5080238395992573e+00  1.0000000000000000e+01  9.2470640805693216e-01  4.0678780063085407e+00  7.2731107371201915e+00  6.3072221053414461e+00  5.9422116500085558e+00  6.6924026651930930e+00  8.8697576833209641e+00  2.8870255323200245e+00  8.1936066270085917e+00  2.6789795595810246e+00  2.8789910515992991e+00  4.9542465729772118e+00  8.7028898079347439e+00  4.3593041484528756e+00  2.1975010320302659e+00  7.5145365408982157e+00  3.1288121888859979e+00  4.5181165462470112e+00  7.5677171915335455e+00  7.3797780430510249e+00  3.9860538427135861e+00  0.0000000000000000e+00  8.7292173515646851e+00  0.0000000000000000e+00  7.2427914933001372e+00  3.4162551499517400e+00  1.9345642729819106e+00  1.9505446982486758e+00  1.9818988006848961e+00  5.5338424831163318e+00  3.0895112704912111e+00  6.8401526735121978e+00  8.7610525697725161e-01  2.7956041391186091e+00  7.8737908383178778e+00  6.5389928515983646e+00  9.0952099963280741e-01  3.1003021629943799e+00  3.1425155425977054e+00  3.9379380098807641e+00  8.3653630707830047e+00  6.9345609420256213e+00  5.6592160751364275e+00  5.0485491782332046e+00  7.7881678932063876e+00  9.0432929259353561e+00  9.5297195531752852e+00  6.4264130949532845e+00  5.0192752368266125e-01  3.6948002404904550e+00  2.2936665138510165e-01  4.2894701577755399e+00  9.5298659275438915e+00  1.0000000000000000e+01  1.0000000000000000e+01  8.6007463827060420e+00  2.3950732671594617e+00  7.6982609695199855e+00  0.0000000000000000e+00  2.0877207841966025e-01  3.9862902545698011e+00  0.0000000000000000e+00  1.0000000000000000e+01  1.9295496355512420e+00  8.6005083823970470e+00  1.0000000000000000e+01  6.0356472673686810e+00  5.2919662665022962e+00  1.0000000000000000e+01  1.0000000000000000e+01  1.0000000000000000e+01  0.0000000000000000e+00  0.0000000000000000e+00  0.0000000000000000e+00  3.4149877545219165e+00  0.0000000000000000e+00  2.3947682792730158e+00  6.8401918291574546e+00  0.0000000000000000e+00  6.2778204604285226e-01  6.2776622106636804e-01  0.0000000000000000e+00  1.4838957184060266e+00  4.6099122553259857e+00  0.0000000000000000e+00  6.0362233433528241e+00  1.0000000000000000e+01  1.0000000000000000e+01  9.5303024361003175e+00  0.0000000000000000e+00  4.6098179002116710e+00  0.0000000000000000e+00  3.4154175257902590e+00  1.0000000000000000e+01  1.0000000000000000e+01  1.5907384279038901e+00  6.5446753658559258e+00  1.8136666564794454e-01  4.8841799831342207e+00  4.5052012569227422e+00  7.1090838021295450e+00  2.7586280074883072e+00  1.4923066359045332e+00  1.6617801592880210e+00  1.3312050275325400e+00  8.5227057968421178e+00  1.1586991748726960e+00  1.9683369627872821e-01  9.8503162213109186e-01  7.9192747891627535e+00  4.2398683385692748e-01  5.2848809051045353e-01  2.0531777173144922e-01  4.2692480333690475e-01  3.1327687346480843e-01  4.7028133520850107e-01  4.3728070237765942e-01  8.5680145125478226e+00  8.0707994305837367e+00  1.5840433401888596e+00  4.3227252112826804e+00  9.4813877873319488e+00  6.1696482570911704e-01  5.1417150918438255e+00  3.0269637134879388e+00  9.3363001363796361e-01  2.7834352833482949e+00  1.9954663111145670e+00  2.5179278203138251e+00  6.6513596213445449e+00  8.7974089836578919e+00  1.4474161277900039e+00  8.2988187953528243e+00  7.8948205415278236e+00  5.5239652470250267e+00  2.4139650121824086e+00  3.5241130269635565e+00  5.8200642414255066e+00  1.8046960333465332e+00  4.0769252859122336e+00  8.5246018994600483e+00  1.9799124728429178e+00  4.9757243909316822e+00  7.4592223674760625e+00  6.7583962627515168e+00  7.3799332689301336e+00  2.0118931112553012e-01  1.7871222432320848e+00  1.5743836828348472e+00  1.3749055239153394e+00  8.9242971431316853e-01  1.1326748547828025e+00  2.9415678117372268e+00  3.9130967448483731e+00  3.5805940927375630e+00  6.8068574135811746e+00  9.0676734344624936e+00  8.7375483261417912e+00  6.3840862381257306e+00  6.1651087069306429e+00  2.8173291756237351e+00  3.9408666815656468e+00  8.1617160622785301e-01  9.4312149039715043e-01  1.2551639485315573e+00  1.1243716915895270e+00  1.3572715153609436e+00  1.2867443651044812e+00  1.1723463394987517e+00  5.1021681951589670e+00  5.0155816052974345e+00  2.7321081843996171e+00  4.5794230000803307e+00  8.4739107042306099e+00  2.3469734405393123e+00  2.0157357965729594e+00  9.5817524409843582e+00  7.9132448707000478e+00  8.1719037704681021e+00  4.1137717010778996e+00  6.1236800903255761e-01  5.1793833633495456e+00  3.5577471537385921e+00  2.3108347472206878e+00  5.7951297063154730e+00  6.8738171934789190e+00  1.1928404226182541e+00  7.6755595455655659e+00  7.3325817072228681e+00  6.7946136409216162e+00  9.5123466641393808e+00  8.1563890629525719e+00  8.3157178610878528e+00  8.7554670259273379e+00  7.7531433416219615e+00  2.1477253876668136e+00  7.6609343097123528e-01  1.1221126352956055e+00  9.5278345322227000e+00  2.2183060705620341e+00  1.1310615600381630e+00  5.2176210527442146e+00  5.8563233126604457e+00  3.2243470079402772e+00  2.5560741613418116e+00  3.4863627098825645e+00  1.5248579598622962e+00  1.6178634990723273e+00  1.4707926208544471e+00  1.6652351195655055e-01  2.0994571537100053e+00  7.3676158536882843e+00  6.8684705715316543e+00  9.6576652330390989e-01  8.8484327274913603e+00  6.9353614501066527e+00  7.7753418060570150e+00  6.2489318413366872e+00  4.9580588946045383e+00  1.1569372119201731e+00  9.8829066676284794e-01  7.8129159387807190e-01  8.4014521676809673e-01  4.6113041422349488e+00  6.72914