<?xml version="1.0"?>
<VTKFile type="UnstructuredGrid"  version="0.1"  >
<UnstructuredGrid>
<Piece  NumberOfPoints="2513" NumberOfCells="4852">
<Points>
<DataArray  type="Float64"  NumberOfComponents="3"  format="ascii">-1 1 0  -1 -1 0  1 -1 0  1 1 0  0 -1 0  1 0 0  0 1 0  -1 0 0  0 0 0  -1 -0.5 0  -0.5 -1 0  -0.5 1 0  -1 0.5 0  1 -0.5 0  0.5 -1 0  1 0.5 0  0.5 1 0  0.4166666666666666 -0.4166666666666667 0  -0.4166666666666667 0.4166666666666667 0  -0.25 -0.5 0  0.5 0.25 0  -0.4861111111111112 -0.06944444444444445 0  0.0732758620689655 0.507183908045977 0  -0.625 -0.625 0  0.625 0.625 0  0.7380952380952381 -0.25 0  -0.7099116161616161 0.2105429292929293 0  -0.25 0.7380952380952381 0  0.105392156862745 -0.6348039215686275 0  0.6770833333333334 -0.6770833333333333 0  -0.6770833333333334 0.6770833333333334 0  0.3472222222222222 -0.06944444444444446 0  -0.7264957264957265 -0.3044871794871795 0  0.3141940982507127 0.7297313660835709 0  0.02049587951122483 -0.3227479397556124 0  -0.2690972222222223 0.1475694444444444 0  0.3859500089908372 -0.7274430156831472 0  -0.2228477945123298 -0.1761765495248019 0  0.2182539682539683 0.1884920634920635 0  0.75 0.375 0  -0.145442219440968 -0.7602211097204841 0  0.7088913690476191 0.0427827380952381 0  -0.75 -1 0  -1 -0.75 0  1 0.75 0  0.75 1 0  -0.7439982703698937 -0.04614153195464455 0  -0.4609235096577606 -0.3356498099556895 0  0.4063134471431929 0.4895621842856023 0  0.25 -1 0  -0.25 -1 0  -0.75 1 0  0.75 -1 0  -1 -0.25 0  -1 0.25 0  1 -0.25 0  -0.25 1 0  1 -0.75 0  -1 0.75 0  0.25 1 0  1 0.25 0  -0.4041423272138783 -0.7597141090712928 0  0.06500839607911253 0.7578103030529481 0  -0.1572801182352047 0.3838997021864289 0  -0.6528005242053915 0.4409494757946086 0  -0.4930160984848485 0.1544744318181818 0  -0.4732142857142858 0.7752976190476191 0  0.6398809523809523 -0.4538690476190476 0  0.5166054117396399 -0.2161233620965164 0  -0.002273787244753427 0.2232363985975174 0  0.1500564496765022 -0.1524955293952667 0  0.2016720420046758 -0.4410343282803009 0  -0.08495178036419618 0.6274139771124571 0  -0.8367311471133162 0.3642591720794645 0  -0.8333333333333334 -0.625 0  -0.594323836800685 -0.8231079456002283 0  -0.4466957714776065 -0.5349126855671806 0  0.8125 0.5625 0  0.78125 0.78125 0  0.5091392650016769 0.7947130883338923 0  0.125 -0.8382681931833136 0  -0.8184523809523809 -0.8184523809523809 0  -0.07781530426104531 -0.5819319697006881 0  0.5085055196703295 0.04967610411902112 0  0.2918471072074933 -0.276017202318847 0  0.5120763537765269 -0.5898771553229597 0  0.625 -0.8585349462365591 0  0.8158532234335381 -0.8158532234335381 0  -0.5198088446315396 0.5739411553684605 0  -0.8585349462365591 0.625 0  -0.8150493805516597 0.8156205699829586 0  0.8585349462365591 -0.625 0  -0.2688268348649726 0.5439331383603209 0  0.8242100426758139 -0.4436043596336612 0  0.5833756314287952 0.4479378157143976 0  0.8690476190476191 -0.125 0  -0.125 0.8690476190476191 0  -0.8692745600729823 0.125 0  0.8696725120759167 0.125 0  -0.625 0.8711516477451908 0  0.2339522463269718 0.3879558377955778 0  0.2453709502295031 0.5655822922838026 0  0.1730610651637797 0.02021709580868947 0  0.3245402594056757 -0.5644672020485209 0  -0.7291666666666666 -0.4816595441595442 0  -1 -0.375 0  -0.5811140848639904 -0.2127276307675001 0  0.673332592838314 0.2158348143233718 0  0.375 1 0  -0.5714768890989919 0.2985103444040069 0  -1 -0.125 0  -0.8453692574786325 -0.1875 0  -0.3144549134065865 -0.02408675326008025 0  -0.2898414972096258 -0.3336092734780093 0  -0.1075052092206287 -0.4224330421314983 0  -0.05043970703604117 -0.1652278959397459 0  0.6459672950297897 -0.1113415301525317 0  0.4645210271029513 0.6398480556579343 0  0.3512863754411909 0.0937979496253573 0  -0.6063160985568274 0.03891469652249891 0  -0.3428819444444445 0.8690476190476191 0  0.625 1 0  -0.1602164796159982 0.02697860906625157 0  0.04648110064133829 -0.4808416424239687 0  1 0.875 0  -0.3836102479201657 0.6484936449177356 0  -0.3776011723096096 0.263078478984336 0  -0.6024978259969829 -0.3949628096211138 0  0.125 1 0  0.2010781308272777 0.8456221018461906 0  0.2822509696388829 -0.845902544691141 0  -0.3285533674953515 -0.6289773550938936 0  0.3461306793221754 0.278777492464833 0  0.4737475672408696 -0.8508448959534423 0  0.2384632828836344 -0.7029523187242811 0  -0.004777287059791593 0.3759269695907358 0  -0.8499735021850066 -0.3912320205328522 0  0.1222536293721587 0.2963971539625205 0  -0.3769456520999688 -0.203572526805711 0  -0.2749617205755651 -0.8464290792698902 0  0.004805888512766143 -0.747174355248311 0  -0.125 -1 0  -0.06001061822252458 -0.8724007765244854 0  0.875 0.4375 0  0.854421179608893 0.271342359217786 0  0.875 1 0  -0.1499861095763589 0.2358309656934888 0  0.3381943639137225 0.8663061796405532 0  -0.7853090110442228 0.4998412775277108 0  0.7398165998560814 -0.5535192694951373 0  0.1580042122341573 -0.3100246140259917 0  -0.7291666666666667 -0.7142857142857142 0  -0.375 -1 0  0.6483368386154684 0.8514905990110488 0  -0.1295370103291928 -0.2826118305021242 0  0.07458201853700455 0.1123894386563915 0  0.6146465857036327 -0.3161203659316075 0  0.5551898493894731 -0.740296118159085 0  0.375 -1 0  0.482702798370208 -0.084133350091034 0  0.87890625 0.68359375 0  -0.05917195534525846 0.4971092425697621 0  0.1260710309213975 0.6343750312956699 0  0.8690476190476191 -0.3077066815262848 0  -0.2912010232560567 0.3668168386732139 0  -0.875 1 0  -1 0.875 0  1 -0.875 0  0.875 -1 0  -0.8689564281364567 -0.006189266075306407 0  -0.7449425635110547 0.08458938160051771 0  -0.7150266761936593 -0.1739444581417552 0  -0.5260034831318311 -0.711099823962112 0  -0.4724626808827322 -0.871722230709409 0  0.4734436795977052 0.377714794132168 0  -0.875 -1 0  -1 -0.875 0  0.6927189078571988 0.5156567235715964 0  -0.3742497615796874 -0.4296005251260107 0  -0.1969436423297711 -0.6387157229772615 0  -0.6179496409766825 -0.08933356056510935 0  -0.424405057115988 0.04452428810878029 0  -0.08479048335844169 0.1279607007132633 0  0.003830300099055113 0.8712085230656206 0  0.8748778838820267 -1.379218479898026e-05 0  -0.375 1 0  -0.625 1 0  1 0.125 0  -0.125 1 0  1 -0.375 0  1 -0.125 0  1 -0.625 0  0.625 -1 0  0.125 -1 0  -0.625 -1 0  -1 -0.625 0  -1 0.125 0  -1 0.375 0  -1 0.625 0  1 0.375 0  1 0.625 0  0.6325660748712082 0.3335187599557389 0  -0.06420945895056573 0.7549874027425891 0  -0.8769015540914771 0.2478802253893416 0  0.871875 0.871875 0  -0.6868091492840067 0.3270978624973681 0  -0.5363597469565949 0.412994850055505 0  -0.6803734992638302 0.5574295000651103 0  -0.7076253581162534 -0.8803439094224437 0  -0.8778089002295137 -0.5106896447504627 0  -0.3860184984222981 0.530566778071246 0  0.6109900617121508 0.1128453077697081 0  0.3896945134930274 -0.1915382873255086 0  0.7605656944697778 -0.06822134873122943 0  0.3576151269893478 0.5948388411612135 0  -0.5689902680792265 -0.5143596830118065 0  0.6262446286847614 -0.5735657901943212 0  0.2030558252325225 -0.5625263842513452 0  0.6123273142928579 0.7407533260723429 0  0.4016460890123554 -0.3042863223111857 0  -0.59039693199147 0.7578418819188018 0  0.7276932493917544 -0.3705808024528924 0  0.5222536818742854 -0.4713886230400014 0  -0.5101986527137737 0.8848365765607674 0  0.510560172809238 0.5356013299918891 0  -0.3603569195756083 0.75823710606415 0  0.1967279277813232 0.728226870058472 0  -0.6086880986371127 0.1545624071548516 0  -0.38105366729386 0.1511189987807864 0  -0.2944659463671584 -0.7359061804869591 0  0.5060729154966499 -0.3475227845833823 0  -0.09281616240412746 -0.06197858250969457 0  0.7649739583333334 0.6673177083333334 0  0.7628906249999999 0.890234375 0  -0.2666864184909611 0.2585504071132311 0  0.3635064892129658 0.3878003602709461 0  -0.2339409722222222 0.8901937905844155 0  -0.1718792125974916 -0.8957733325456778 0  0.1001768566329531 0.4023510017391879 0  0.3120260172693757 -0.4540546875576884 0  0.7804062804433681 0.1896628610854537 0  0.4087715451998049 0.187961780041608 0  -0.1584963477271457 0.5451611892421655 0  -0.8926817849258324 0.463022006336401 0  0.2338091473445219 -0.07576267331277289 0  0.08171112182813692 -0.2349087687359925 0  0.04635385178956847 -0.1044635073718474 0  -0.4377391632114205 -0.6448874471423088 0  -0.1907678351227189 0.6480215912813945 0  0.300605946475244 0.4741444604171038 0  -0.2145033720757486 -0.06751709909419711 0  0.6069191921170397 -0.005492331448357812 0  0.0214718770761248 0.6032397936031719 0  0.5476675683364878 0.8992752415326501 0  0.4387475014316537 0.9093708953002239 0  -0.4932997685306436 -0.4381009159993523 0  0.2515197695339056 -0.1791673369138964 0  -0.7291666666666667 -0.6088789682539681 0  -0.9166666666666667 -0.6875 0  0.620579540363709 -0.2122431523583302 0  -0.484950136419973 0.6719440339397442 0  0.2857044415400258 0.0137589173127316 0  -0.8945708364098356 -0.288306105327986 0  0.4043102720140535 0.7842914560451557 0  0.04123256238752064 -0.9026968245801402 0  0.2003676884403109 -0.9091888601740487 0  0.1068775558538842 -0.7373377130403223 0  -0.4804566783514427 -0.1763307203045643 0  0.108286342087769 -0.3993789328997278 0  -0.191883080105361 -0.3640821726430649 0  -0.07025064492006244 0.2984876656890053 0  -0.7039324641409584 0.788312126296613 0  -0.7311286585775438 0.8932502354831682 0  0.5171409396884947 0.1503852691889257 0  0.4229392823658633 -0.003216522184234835 0  -0.5621736087218259 -0.919558629836806 0  -0.626474064879544 -0.7266572613636506 0  0.2446828746617422 0.2867616783302419 0  0.1759429608742923 0.4776611759306416 0  -0.3468240303741654 -0.5260416435617549 0  -0.7465808808425306 0.4069574477998361 0  -0.7819962170660292 0.2802441065650652 0  -0.3742623214119594 -0.8547800509641984 0  0.1014498009713561 0.8506721983266377 0  0.4285217620918213 -0.5230190595570253 0  0.4091738370487775 -0.6256346204225141 0  0.78125 0.46875 0  0.90625 0.53125 0  -0.4791801348852565 0.2553992655702126 0  0.7843318610782772 -0.7086046956885941 0  0.8909728264971901 -0.7355183796514634 0  0.7041908166528879 -0.7830649143180282 0  0.7311821352
[...]
<PointData  Scalars="velocity-2"> 
<DataArray  type="Float64"  Name="velocity-2"  format="ascii">0.0000000000000000e+00  0.0000000000000000e+00  1.0000000000000000e+01  1.0000000000000000e+01  5.1118594674744458e+00  1.0000000000000000e+01  5.1119002508778282e+00  0.0000000000000000e+00  5.1118594587098762e+00  0.0000000000000000e+00  2.5799787478698288e+00  2.5799555120355979e+00  0.0000000000000000e+00  1.0000000000000000e+01  7.5782906069265907e+00  1.0000000000000000e+01  7.5782831468058145e+00  7.1712550182171659e+00  3.0061899455870846e+00  3.8539256617866005e+00  7.5782493895094802e+00  2.6510761642801861e+00  5.4772934968258333e+00  1.9379006507561343e+00  8.1863610900777068e+00  8.7345825694864665e+00  1.5003266560360597e+00  3.8539288546958819e+00  5.6369968091083962e+00  8.4390419809571551e+00  1.6696147802463919e+00  6.8310004798576580e+00  1.4147359385610632e+00  6.6687727695895029e+00  5.2142181874516336e+00  3.7571472876551075e+00  7.0208883123024437e+00  3.9913631929379734e+00  6.1960786866250386e+00  8.7922104347802232e+00  4.3820890777463921e+00  8.5931764635766168e+00  1.2934061909942156e+00  0.0000000000000000e+00  1.0000000000000000e+01  8.7922179703303573e+00  1.3243940988491409e+00  2.7799960131545318e+00  7.1206183795135765e+00  6.3527810515188827e+00  3.8539588076237932e+00  1.2933828195067731e+00  8.7922327406336365e+00  0.0000000000000000e+00  0.0000000000000000e+00  1.0000000000000000e+01  3.8538994425450541e+00  1.0000000000000000e+01  0.0000000000000000e+00  6.3527547307135164e+00  1.0000000000000000e+01  3.0701358350819161e+00  5.4361339602389291e+00  4.3224705792364748e+00  1.7947706773811096e+00  2.6157306198781756e+00  2.7171147390168802e+00  8.2586171280906040e+00  7.6591796180096292e+00  5.1004779055868212e+00  5.8586872110745594e+00  6.1141753366709217e+00  4.6863300282590421e+00  8.4512595360965037e-01  8.6269745972599665e-01  2.0957133275781183e+00  2.8527622572499216e+00  9.0945001651741748e+00  8.9433948239306620e+00  7.6228257091866416e+00  5.7343574701122755e+00  9.3965327168414059e-01  4.7221210090413575e+00  7.6197316053080577e+00  6.5588607971173776e+00  7.6371244224290642e+00  8.1863652737931005e+00  9.1107148019689408e+00  2.4783839552017732e+00  7.3233424328996310e-01  9.5725344968504733e-01  9.3169646770115726e+00  3.7585012286404513e+00  9.1511144449614736e+00  7.9841499697319387e+00  9.3677507868346606e+00  4.4850511976992786e+00  6.7677273373796432e-01  9.3707726319052771e+00  1.9379203677672945e+00  6.2735879875397886e+00  6.3299420003396110e+00  5.9726364817746855e+00  6.7196079240239488e+00  1.4009577593944125e+00  0.0000000000000000e+00  2.1636231621162838e+00  8.4208528953771644e+00  6.9672854631953491e+00  2.2131747523088747e+00  0.0000000000000000e+00  8.0043949097590805e-01  3.5269088688177370e+00  3.6518912417554974e+00  4.5730057315125512e+00  4.8594245323845318e+00  8.2881329236477512e+00  7.4051242751967381e+00  6.8509480012257136e+00  2.0340734336416246e+00  3.3823320311415674e+00  8.1863799771946333e+00  4.3076366962078083e+00  5.3438507694973110e+00  1.0000000000000000e+01  3.1748768867786348e+00  3.2054944467227680e+00  2.0536928587709298e+00  5.7344182977309988e+00  6.1111992558373309e+00  6.5116570952238488e+00  3.4552130924379525e+00  6.8256058452372201e+00  7.4501923178399583e+00  6.2958322639163313e+00  5.0879674584469807e+00  7.7662689756462422e-01  5.7207300751395538e+00  3.2088602833526991e+00  3.7273955562888674e+00  5.1358737766892268e+00  4.4850392973830342e+00  4.8114755229055088e+00  9.3965007043185995e+00  9.2970919175757984e+00  9.3964990559594206e+00  4.3592218487173753e+00  6.7866730696802682e+00  1.1109735616855272e+00  8.7429175855384607e+00  5.8980428230336548e+00  1.4009476496013022e+00  3.2187794384529012e+00  8.2996322865567844e+00  4.4621950363158049e+00  5.4837697153798937e+00  8.1360962026119221e+00  7.8470712588619191e+00  6.9672558577343757e+00  7.4938987629793692e+00  9.4153637126572924e+00  4.8156431130133805e+00  5.7396941483843396e+00  9.3677490323005763e+00  3.6449892129366757e+00  6.4715484114007793e-01  0.0000000000000000e+00  1.0000000000000000e+01  9.3965080125053433e+00  6.7841265098260661e-01  1.3195085786934959e+00  1.4739283326773960e+00  2.4466120610676652e+00  2.7209436462042929e+00  7.4487066399502426e+00  6.4714836059828273e-01  0.0000000000000000e+00  8.5148202261363668e+00  3.2225818920809726e+00  4.1222943937832133e+00  1.9741884878234628e+00  2.9666705128553246e+00  4.6871286626712356e+00  5.1309643460233492e+00  9.3959100228440686e+00  3.2188271161147877e+00  1.9379248299229699e+00  1.0000000000000000e+01  4.4850302538786062e+00  1.0000000000000000e+01  1.0000000000000000e+01  1.0000000000000000e+01  8.1863839551625226e+00  5.7344107995636753e+00  1.9379249865278236e+00  0.0000000000000000e+00  0.0000000000000000e+00  0.0000000000000000e+00  0.0000000000000000e+00  1.0000000000000000e+01  1.0000000000000000e+01  8.2230915515079595e+00  4.7904003886706006e+00  6.3730568481950756e-01  9.3814105403849055e+00  1.6195036667727498e+00  2.3934935128219617e+00  1.6526705395135963e+00  1.5121075828159072e+00  6.3260879096174871e-01  3.1625987427755260e+00  8.1183288218364851e+00  7.0391856121130383e+00  8.8433393809759284e+00  6.8819754150203831e+00  2.2259253183430108e+00  8.1924181500766817e+00  6.1210005042097846e+00  8.1248330702760381e+00  7.0977533771621513e+00  2.1159251416450351e+00  8.6842314051902587e+00  7.6867128252936272e+00  2.5276475536604979e+00  7.6297344933712994e+00  3.2933900109978764e+00  6.0896950062273794e+00  2.0218589605275192e+00  3.1879164233150816e+00  3.6284321404118729e+00  7.6078684406590096e+00  4.6468218310118470e+00  8.8646636667162166e+00  8.8545893969416110e+00  3.7693840328007955e+00  6.9108567244993822e+00  3.9352162373625812e+00  4.2488208228474331e+00  5.6110899625867727e+00  6.6581486127951930e+00  8.9393263398350857e+00  7.1326456633509689e+00  4.3163236398668765e+00  5.5563956171520301e-01  6.2728773714876072e+00  5.5192511468001255e+00  5.3431955350257745e+00  2.8985719899140281e+00  4.1534922046416236e+00  6.6019687994747303e+00  4.0336023468073154e+00  8.0985647041014595e+00  5.2191135566768496e+00  7.8104580109827006e+00  7.2792544636016823e+00  2.6142324935391392e+00  6.3602489622478675e+00  1.4009461043242877e+00  4.3148575138401274e-01  8.1649054499517426e+00  2.6570101442440350e+00  6.5286494985236549e+00  5.4585720049259556e-01  7.1107935985077217e+00  5.3176786261328353e+00  6.1077225960934056e+00  5.6443777951998610e+00  2.6800356564830432e+00  5.6513904685985743e+00  4.1478571220669709e+00  4.7600928396394266e+00  1.5311658520537301e+00  1.3908472312062761e+00  7.6618083126230179e+00  7.2019482700866577e+00  2.2609511880969877e+00  1.9303157968171265e+00  6.3265374195279751e+00  5.9868730341146952e+00  3.3622991577527261e+00  1.3110484995850933e+00  1.1281153852183763e+00  3.2225430640657029e+00  5.6174147682631510e+00  7.2292285937400633e+00  7.1346058028825237e+00  8.9433946762292553e+00  9.5474184250602754e+00  2.6865788681810976e+00  8.9583065751643254e+00  9.4736435777598658e+00  8.5704072857774616e+00  8.7011229257929692e+00  4.2427693806796324e-01  4.8223807210582093e-01  1.1164433562638545e+00  3.9364772331982376e+00  1.0365549795869227e+00  5.2998928930519340e-01  4.6999971078461700e-01  9.0118205159789344e-01  8.9193752631443524e-01  9.4821407862179363e+00  3.6653841820471436e+00  2.1609451254965908e+00  6.9847960935526503e+00  4.7295753368533546e+00  5.2240918313510623e+00  4.2725745708696010e+00  1.1976989873323527e+00  6.6653309827248108e+00  5.7141796932031657e+00  3.1611974710761395e+00  3.4523231155980416e+00  4.0659480455840569e-01  7.8826314868462761e+00  9.4946851309372455e+00  9.5496381162925577e+00  9.3983863284285896e+00  2.4300210393685204e+00  2.7221728689596478e+00  2.0922884453224206e+00  6.3070177979793307e+00  8.7706079719575882e+00  3.4603226494252475e+00  6.7028175587939245e+00  6.2728356322312662e+00  4.3092960935912101e+00  7.4494944863608357e+00  4.2135216600155996e+00  1.9228555915251284e+00  8.7167289648473982e+00  3.5368378242409069e+00  8.9378522733329628e+00  8.9102265224214594e-01  9.5509506941787041e+00  3.4708147131672390e-01  2.5046738420608694e+00  8.4003983923112013e+00  8.0724010146857186e+00  8.0109692952483300e+00  4.7989900316078034e+00  1.0983498146297739e+00  3.3844906875263331e-01  9.0424211044908418e+00  9.6854363839541300e+00  3.5603603464683329e+00  6.6604421769139979e+00  7.7153349057850207e+00  7.2731206509293660e+00  9.6853081787339672e+00  9.0945047456555592e+00  6.5223251613902935e+00  5.7546416754249616e+00  2.8997836788980278e+00  1.2583887445508373e+00  1.0746409998251434e+00  1.7268131071548618e+00  9.6850622452330732e+00  3.2437072703675301e-01  3.2474435833156140e-01  9.6854357109835867e+00  9.6839323660406098e+00  5.4236611438988769e+00  4.1695136880486233e-01  9.6835715243705334e+00  8.5978736057690721e+00  7.9810380250964617e+00  5.6767452208090390e+00  6.0416388369179899e+00  8.4895246897480767e+00  7.0183613776847071e+00  6.7997342197848933e+00  5.1208177502279364e+00  5.5347983167740953e+00  3.3845284098213230e-01  1.6206672726247109e+00  8.5655914955783192e+00  3.8641682100723229e+00  4.3550036679747715e+00  2.7109872749591961e+00  5.0858187097174383e+00  6.0440629395202894e+00  2.5442750130762892e+00  3.6648834639021377e+00  3.2173789667340360e+00  3.9958304645548819e+00  7.9596305519642057e+00  7.2908163082404913e+00  9.1408317661717930e+00  5.1413287175401283e+00  2.5139857069281915e+00  9.9462279649670249e-01  3.6198006157788631e+00  8.7092550471277814e+00  9.2113600880374182e+00  4.3148098646467009e-01  3.8318766578661934e-01  7.8996988956361633e+00  8.5331523720504130e+00  4.0158481302518290e+00  8.4722926607471916e+00  4.4808599445597679e+00  6.4162940896291971e+00  7.7962960234673817e+00  2.9321131073862485e+00  2.3173494454865464e+00  4.8795526102903954e+00  5.0584583959378504e+00  4.7879000255906314e+00  5.8190810040299414e+00  2.3064436551918046e+00  1.8463857203784091e+00  2.0268395506685550e+00  1.8768174705857750e+00  2.3492658630062393e+00  2.2593180083906028e+00  4.7348908584885567e+00  5.0969557684741948e+00  4.1742792344679183e+00  7.5874955099711396e+00  6.3761342316826513e+00  1.7331154383046645e+00  2.3188630870302540e+00  8.7808332096120516e+00  4.4289516501843282e+00  7.1537530576177106e+00  7.7871867516062290e+00  7.2629613136372511e+00  2.8997896298199666e+00  6.1768637697059070e+00  3.6029516747462260e+00  3.6263968471530679e+00  5.8908634217858076e+00  5.1533923683419900e+00  5.7108140221386225e+00  6.1337658913515796e+00  4.7130406452285882e+00  3.2340363814319035e+00  3.0593973842773048e+00  9.1328705402847294e+00  9.6962023866046358e+00  6.6821353209509553e+00  4.5574023996800095e-01  4.3608647824164004e+00  7.3508664836890310e+00  3.4817720608213185e+00  9.1637176686199400e+00  2.9481424454110798e+00  6.5993329645470595e+00  3.9790904345788944e+00  2.8490395324359601e+00  9.6585533082479103e+00  5.3384890789071526e-01  5.8497223633571664e+00  8.1850420983242866e+00  9.4145160883411254e+00  3.2363246817280289e-01  8.9742881918200528e+00  4.1699716653983776e+00  3.4321613383790091e+00  1.6556545024308513e+00  4.0785454396003068e-01  6.4245328470933423e+00  1.0760192943116076e+00  1.7345385778431894e+00  1.7683153239505076e+00  5.2843440257332590e+00  5.2927992821820231e+00  8.4895561897229328e+00  8.3676780671550350e+00  6.3525370249689068e+00  1.0000000000000000e+01  2.9674601051982759e+00  9.8552052415331004e-01  7.8187598019483469e+00  3.6833218120786415e+00  3.2159204218215227e+00  4.7624273234739070e+00  1.9017904272440138e+00  1.6159209320651609e+00  7.9491180460455650e+00  8.6490790687543839e+00  2.3804961823136845e+00  2.2849785746137616e+00  6.6604607192014340e+00  3.1400064672010282e+00  5.9255298761283477e+00  2.9886090602413575e+00  4.3891050840459283e+00  4.0714402118643864e+00  4.7284044630016187e+00  1.0000000000000000e+01  9.3339316572130002e+00  7.7330194589782622e+00  7.3920972747733593e+00  7.5576356045236215e-01  8.5045486069205918e+00  8.0061875772200448e+00  6.5649757365261578e+00  4.9773004538261763e+00  1.6159413083581542e+00  9.6801861084263248e+00  4.2578451140770035e+00  3.8907780559625147e+00  1.4603343026752409e+00  9.6148770773668246e-01  7.3129106546429332e+00  8.1516208875941842e+00  4.1049641571195377e+00  5.2867884220618295e+00  5.9242922067039405e+00  5.9827039589092710e+00  5.7012343111202632e+00  1.9075011689553216e+00  7.9851915528334461e+00  0.0000000000000000e+00  1.7769959253118948e+00  2.1488926575402081e+00  4.5778034726938488e+00  2.9659096558072431e+00  3.4532003148509496e+00  9.2189357472555322e+00  7.1422502707859028e+00  7.3814789131778191e+00  4.7006867206526266e+00  3.6624679095734869e-01  8.4656676606827066e+00  4.4782515485015146e+00  4.9970400487413409e+00  5.0237785826669272e+00  1.0000000000000000e+01  8.3138570240763148e+00  7.9208464281451585e+00  8.3940027050072068e+00  3.3236794458251899e+00  9.6982993815190124e+00  9.2455260884758221e+00  9.6486306057771571e+00  0.0000000000000000e+00  9.6983027979189877e+00  4.5161389735028008e+00  1.2443032289889211e+00  1.6135115474512081e+00  6.6902819993243501e+00  6.7110031968729693e+00  6.9463073078886959e+00  6.8624055206059644e+00  9.6657159192285196e+00  9.1106289591734093e+00  5.9824558282838680e+00  5.5635313288512709e+00  8.0685914086017407e-01  3.9813090521063748e+00  5.4824519347989549e+00  3.7766361909065127e+00  2.6731886833922256e+00  1.1704049105501151e+00  1.6939694065039610e+00  1.1319574180524234e+00  3.4961521758473002e+00  8.4986857679850214e+00  1.9955293564421002e+00  7.1399471082319348e+00  0.0000000000000000e+00  2.3579017110971789e+00  9.6746194791725983e+00  6.3754765034416472e-01  6.8978832526416003e+00  5.3765352410438405e+00  3.2579010157400194e+00  6.1675696876360764e+00  5.3954104323106193e+00  4.8119002858123601e+00  5.1102539971889964e+00  7.3432971032999879e+00  9.6839985815863336e+00  1.0217426899648594e+00  9.0554578974696192e+00  5.4600380322615498e+00  9.6915486655097940e+00  5.8614242576003805e+00  6.8300001887333863e+00  5.1356389907646891e+00  2.2224529603174705e+00  4.6573280227165004e+00  1.0000000000000000e+01  5.4958715322625338e+00  1.1504942885640623e+00  6.6020657452587006e+00  1.4406524201561786e+00  4.4792893119466903e+00  9.0472244807664364e+00  7.5800731785922233e+00  1.2818886021385361e+00  1.1751104225868378e+00  3.4188364343225035e+00  9.6372688918542027e-01  2.2084281617827997e+00  2.5946958375832034e+00  2.3875196881691299e+00  2.8470874871087610e+00  2.7376328899135567e+00  9.6839302605048481e+00  1.0000000000000000e+01  1.4239140226556477e+00  5.5077858484005668e+00  8.1932022422577599e+00  7.4836663179735030e+00  7.1981529133817626e+00  7.7736503760982005e+00  9.2707173671322991e+00  4.1700608496005751e+00  8.8246149427511007e+00  3.9071026479572946e+00  4.1592428206506602e+00  6.3615749440430696e+00  9.1615858694725336e+00  5.8009176597646919e+00  3.2703581278127838e+00  8.3621483067756461e+00  4.4638508627106672e+00  5.9556197043771855e+00  8.3989596029525853e+00  8.2680493096034304e+00  5.4237218716141831e+00  0.0000000000000000e+00  9.1788518070041274e+00  0.0000000000000000e+00  8.1715276556022651e+00  4.7999874704680598e+00  2.9063791011744802e+00  2.9290298467545752e+00  2.9727293467134333e+00  6.8651060396390804e+00  4.4165695724964342e+00  7.8826551087029229e+00  1.3501055765701830e+00  4.0548804420024318e+00  8.6089175651981016e+00  7.6596732057196970e+00  1.4009736818380845e+00  4.4295810588855398e+00  4.4806221820650229e+00  5.3726878894990966e+00  8.9392216576353967e+00  7.9514524230223129e+00  6.9692821964653158e+00  6.4463735352167362e+00  8.5506309573896218e+00  9.3835972868089268e+00  9.6980110379872464e+00  7.5744138093850104e+00  7.7675142801777086e-01  5.1121568607886028e+00  3.5549431847834817e-01  5.7320694046132044e+00  9.6980378498439030e+00  1.0000000000000000e+01  1.0000000000000000e+01  9.0945019052588769e+00  3.5368533597837657e+00  8.4895613096181570e+00  0.0000000000000000e+00  3.2362664711594569e-01  5.4236976822649199e+00  0.0000000000000000e+00  1.0000000000000000e+01  2.8998195471771013e+00  9.0945111567703449e+00  1.0000000000000000e+01  7.2731850057165301e+00  6.6604990138163274e+00  1.0000000000000000e+01  1.0000000000000000e+01  1.0000000000000000e+01  0.0000000000000000e+00  0.0000000000000000e+00  0.0000000000000000e+00  4.7989956390203847e+00  0.0000000000000000e+00  3.5368982504684747e+00  7.8826537646333046e+00  0.0000000000000000e+00  9.7044097741147040e-01  9.7045152621651576e-01  0.0000000000000000e+00  2.2592890191039250e+00  6.0441232220153749e+00  0.0000000000000000e+00  7.2731521454628343e+00  1.0000000000000000e+01  1.0000000000000000e+01  9.6983012048442738e+00  0.0000000000000000e+00  6.0441295446190217e+00  0.0000000000000000e+00  4.7989574649450084e+00  1.0000000000000000e+01  1.0000000000000000e+01  2.4151999311379591e+00  7.6641210480806814e+00  2.8117463209022159e-01  6.2981534857962691e+00  5.9435033135020570e+00  8.0764451774263559e+00  4.0086062342759572e+00  2.2714921544199704e+00  2.5179050910371630e+00  2.0342122329864623e+00  9.0432274067402467e+00  1.7769932384790572e+00  3.0514006811453576e-01  1.5154189505263562e+00  8.6397718655143390e+00  6.5646764193335416e-01  8.1770545489346724e-01  3.1828808590925672e-01  6.6106947586687770e-01  4.8540542769871503e-01  7.2793831607655946e-01  6.7695618775688604e-01  9.0730531522407123e+00  8.7421953168475088e+00  2.4053647283326272e+00  5.7649804572315615e+00  9.6668299670878639e+00  9.5373908360256454e-01  6.5285838877903890e+00  4.3410119320959222e+00  1.4374406865813703e+00  4.0397111272856963e+00  2.9916491925146245e+00  3.6988737444155446e+00  7.7431054239166102e+00  9.2235012739901183e+00  2.2057405620938093e+00  8.8948939979641111e+00  8.6233816650307631e+00  6.8569528006908698e+00  3.5617284486194447e+00  4.9229613423839833e+00  7.1004904102491428e+00  2.7227134373893356e+00  5.5169695254582782e+00  9.0444768772317445e+00  2.9701843510610133e+00  6.3813069347340008e+00  8.3238047498562384e+00  7.8225602593259316e+00  8.2681807817468709e+00  3.1187026185516020e-01  2.6976923917790678e+00  2.3913677266574247e+00  2.0988837586485589e+00  1.3749647318985778e+00  1.7379284090794920e+00  4.2369709785141882e+00  5.3460136909776157e+00  4.9860399886893445e+00  7.8578701806483329e+00  9.3996172676788508e+00  9.1843489988872449e+00  7.5423588633642735e+00  7.3739558288923810e+00  4.0828742679482453e+00  5.3756223653803623e+00  1.2587646658068963e+00  1.4519435215798646e+00  1.9211550346052486e+00  1.7253449032312347e+00  2.0728277695005106e+00  1.9681586379472094e+00  1.7976359107158706e+00  6.4943253643501677e+00  6.4174162411945144e+00  3.9752028005249183e+00  6.0145284169148860e+00  9.0109184200453090e+00  3.4730146333245249e+00  3.0203389414188089e+00  9.7314296995567275e+00  8.6356329649895933e+00  8.8101658416301820e+00  5.5552897494574802e+00  9.4663689136812135e-01  6.5620724391211862e+00  4.9602317839799905e+00  3.4241985191137307e+00  7.0807309138269598e+00  7.9069366891807293e+00  1.8280827232142873e+00  8.4737232139570526e+00  8.2351641926173169e+00  7.8490357597139147e+00  9.6867254153753812e+00  8.7996158532974746e+00  8.9061621866691123e+00  9.1961601223733123e+00  8.5266545312388473e+00  3.2023402930752893e+00  1.1823790840476875e+00  1.7220736013772371e+00  9.6966809316316738e+00  3.2987619151880021e+00  1.7354886454345608e+00  6.5951491669561131e+00  7.1294815058409728e+00  4.5775537674989533e+00  3.7485423617261056e+00  4.8801764619268608e+00  2.3191108567905103e+00  2.4545276335517743e+00  2.2402091392374772e+00  2.5818202104598009e-01  3.1360718173219522e+00  8.2596870130156290e+00  7.9033313417543143e+00  1.4860606660093112e+00  9.2567805871312494e+00  7.9517246493048868e+00  8.5419245266032942e+00  7.4392404459718016e+00  6.3651239954708396e+00  1.7744422203690193e+00  1.5202717429363155e+00  1.2054925085661461e+00  1.2952663187415081e+00  6.0449147650191630e+00  7.80111