<?xml version="1.0"?>
<VTKFile type="UnstructuredGrid"  version="0.1"  >
<UnstructuredGrid>
<Piece  NumberOfPoints="2513" NumberOfCells="4852">
<Points>
<DataArray  type="Float64"  NumberOfComponents="3"  format="ascii">-1 1 0  -1 -1 0  1 -1 0  1 1 0  0 -1 0  1 0 0  0 1 0  -1 0 0  0 0 0  -1 -0.5 0  -0.5 -1 0  -0.5 1 0  -1 0.5 0  1 -0.5 0  0.5 -1 0  1 0.5 0  0.5 1 0  0.4166666666666666 -0.4166666666666667 0  -0.4166666666666667 0.4166666666666667 0  -0.25 -0.5 0  0.5 0.25 0  -0.4861111111111112 -0.06944444444444445 0  0.0732758620689655 0.507183908045977 0  -0.625 -0.625 0  0.625 0.625 0  0.7380952380952381 -0.25 0  -0.7099116161616161 0.2105429292929293 0  -0.25 0.7380952380952381 0  0.105392156862745 -0.6348039215686275 0  0.6770833333333334 -0.6770833333333333 0  -0.6770833333333334 0.6770833333333334 0  0.3472222222222222 -0.06944444444444446 0  -0.7264957264957265 -0.3044871794871795 0  0.3141940982507127 0.7297313660835709 0  0.02049587951122483 -0.3227479397556124 0  -0.2690972222222223 0.1475694444444444 0  0.3859500089908372 -0.7274430156831472 0  -0.2228477945123298 -0.1761765495248019 0  0.2182539682539683 0.1884920634920635 0  0.75 0.375 0  -0.145442219440968 -0.7602211097204841 0  0.7088913690476191 0.0427827380952381 0  -0.75 -1 0  -1 -0.75 0  1 0.75 0  0.75 1 0  -0.7439982703698937 -0.04614153195464455 0  -0.4609235096577606 -0.3356498099556895 0  0.4063134471431929 0.4895621842856023 0  0.25 -1 0  -0.25 -1 0  -0.75 1 0  0.75 -1 0  -1 -0.25 0  -1 0.25 0  1 -0.25 0  -0.25 1 0  1 -0.75 0  -1 0.75 0  0.25 1 0  1 0.25 0  -0.4041423272138783 -0.7597141090712928 0  0.06500839607911253 0.7578103030529481 0  -0.1572801182352047 0.3838997021864289 0  -0.6528005242053915 0.4409494757946086 0  -0.4930160984848485 0.1544744318181818 0  -0.4732142857142858 0.7752976190476191 0  0.6398809523809523 -0.4538690476190476 0  0.5166054117396399 -0.2161233620965164 0  -0.002273787244753427 0.2232363985975174 0  0.1500564496765022 -0.1524955293952667 0  0.2016720420046758 -0.4410343282803009 0  -0.08495178036419618 0.6274139771124571 0  -0.8367311471133162 0.3642591720794645 0  -0.8333333333333334 -0.625 0  -0.594323836800685 -0.8231079456002283 0  -0.4466957714776065 -0.5349126855671806 0  0.8125 0.5625 0  0.78125 0.78125 0  0.5091392650016769 0.7947130883338923 0  0.125 -0.8382681931833136 0  -0.8184523809523809 -0.8184523809523809 0  -0.07781530426104531 -0.5819319697006881 0  0.5085055196703295 0.04967610411902112 0  0.2918471072074933 -0.276017202318847 0  0.5120763537765269 -0.5898771553229597 0  0.625 -0.8585349462365591 0  0.8158532234335381 -0.8158532234335381 0  -0.5198088446315396 0.5739411553684605 0  -0.8585349462365591 0.625 0  -0.8150493805516597 0.8156205699829586 0  0.8585349462365591 -0.625 0  -0.2688268348649726 0.5439331383603209 0  0.8242100426758139 -0.4436043596336612 0  0.5833756314287952 0.4479378157143976 0  0.8690476190476191 -0.125 0  -0.125 0.8690476190476191 0  -0.8692745600729823 0.125 0  0.8696725120759167 0.125 0  -0.625 0.8711516477451908 0  0.2339522463269718 0.3879558377955778 0  0.2453709502295031 0.5655822922838026 0  0.1730610651637797 0.02021709580868947 0  0.3245402594056757 -0.5644672020485209 0  -0.7291666666666666 -0.4816595441595442 0  -1 -0.375 0  -0.5811140848639904 -0.2127276307675001 0  0.673332592838314 0.2158348143233718 0  0.375 1 0  -0.5714768890989919 0.2985103444040069 0  -1 -0.125 0  -0.8453692574786325 -0.1875 0  -0.3144549134065865 -0.02408675326008025 0  -0.2898414972096258 -0.3336092734780093 0  -0.1075052092206287 -0.4224330421314983 0  -0.05043970703604117 -0.1652278959397459 0  0.6459672950297897 -0.1113415301525317 0  0.4645210271029513 0.6398480556579343 0  0.3512863754411909 0.0937979496253573 0  -0.6063160985568274 0.03891469652249891 0  -0.3428819444444445 0.8690476190476191 0  0.625 1 0  -0.1602164796159982 0.02697860906625157 0  0.04648110064133829 -0.4808416424239687 0  1 0.875 0  -0.3836102479201657 0.6484936449177356 0  -0.3776011723096096 0.263078478984336 0  -0.6024978259969829 -0.3949628096211138 0  0.125 1 0  0.2010781308272777 0.8456221018461906 0  0.2822509696388829 -0.845902544691141 0  -0.3285533674953515 -0.6289773550938936 0  0.3461306793221754 0.278777492464833 0  0.4737475672408696 -0.8508448959534423 0  0.2384632828836344 -0.7029523187242811 0  -0.004777287059791593 0.3759269695907358 0  -0.8499735021850066 -0.3912320205328522 0  0.1222536293721587 0.2963971539625205 0  -0.3769456520999688 -0.203572526805711 0  -0.2749617205755651 -0.8464290792698902 0  0.004805888512766143 -0.747174355248311 0  -0.125 -1 0  -0.06001061822252458 -0.8724007765244854 0  0.875 0.4375 0  0.854421179608893 0.271342359217786 0  0.875 1 0  -0.1499861095763589 0.2358309656934888 0  0.3381943639137225 0.8663061796405532 0  -0.7853090110442228 0.4998412775277108 0  0.7398165998560814 -0.5535192694951373 0  0.1580042122341573 -0.3100246140259917 0  -0.7291666666666667 -0.7142857142857142 0  -0.375 -1 0  0.6483368386154684 0.8514905990110488 0  -0.1295370103291928 -0.2826118305021242 0  0.07458201853700455 0.1123894386563915 0  0.6146465857036327 -0.3161203659316075 0  0.5551898493894731 -0.740296118159085 0  0.375 -1 0  0.482702798370208 -0.084133350091034 0  0.87890625 0.68359375 0  -0.05917195534525846 0.4971092425697621 0  0.1260710309213975 0.6343750312956699 0  0.8690476190476191 -0.3077066815262848 0  -0.2912010232560567 0.3668168386732139 0  -0.875 1 0  -1 0.875 0  1 -0.875 0  0.875 -1 0  -0.8689564281364567 -0.006189266075306407 0  -0.7449425635110547 0.08458938160051771 0  -0.7150266761936593 -0.1739444581417552 0  -0.5260034831318311 -0.711099823962112 0  -0.4724626808827322 -0.871722230709409 0  0.4734436795977052 0.377714794132168 0  -0.875 -1 0  -1 -0.875 0  0.6927189078571988 0.5156567235715964 0  -0.3742497615796874 -0.4296005251260107 0  -0.1969436423297711 -0.6387157229772615 0  -0.6179496409766825 -0.08933356056510935 0  -0.424405057115988 0.04452428810878029 0  -0.08479048335844169 0.1279607007132633 0  0.003830300099055113 0.8712085230656206 0  0.8748778838820267 -1.379218479898026e-05 0  -0.375 1 0  -0.625 1 0  1 0.125 0  -0.125 1 0  1 -0.375 0  1 -0.125 0  1 -0.625 0  0.625 -1 0  0.125 -1 0  -0.625 -1 0  -1 -0.625 0  -1 0.125 0  -1 0.375 0  -1 0.625 0  1 0.375 0  1 0.625 0  0.6325660748712082 0.3335187599557389 0  -0.06420945895056573 0.7549874027425891 0  -0.8769015540914771 0.2478802253893416 0  0.871875 0.871875 0  -0.6868091492840067 0.3270978624973681 0  -0.5363597469565949 0.412994850055505 0  -0.6803734992638302 0.5574295000651103 0  -0.7076253581162534 -0.8803439094224437 0  -0.8778089002295137 -0.5106896447504627 0  -0.3860184984222981 0.530566778071246 0  0.6109900617121508 0.1128453077697081 0  0.3896945134930274 -0.1915382873255086 0  0.7605656944697778 -0.06822134873122943 0  0.3576151269893478 0.5948388411612135 0  -0.5689902680792265 -0.5143596830118065 0  0.6262446286847614 -0.5735657901943212 0  0.2030558252325225 -0.5625263842513452 0  0.6123273142928579 0.7407533260723429 0  0.4016460890123554 -0.3042863223111857 0  -0.59039693199147 0.7578418819188018 0  0.7276932493917544 -0.3705808024528924 0  0.5222536818742854 -0.4713886230400014 0  -0.5101986527137737 0.8848365765607674 0  0.510560172809238 0.5356013299918891 0  -0.3603569195756083 0.75823710606415 0  0.1967279277813232 0.728226870058472 0  -0.6086880986371127 0.1545624071548516 0  -0.38105366729386 0.1511189987807864 0  -0.2944659463671584 -0.7359061804869591 0  0.5060729154966499 -0.3475227845833823 0  -0.09281616240412746 -0.06197858250969457 0  0.7649739583333334 0.6673177083333334 0  0.7628906249999999 0.890234375 0  -0.2666864184909611 0.2585504071132311 0  0.3635064892129658 0.3878003602709461 0  -0.2339409722222222 0.8901937905844155 0  -0.1718792125974916 -0.8957733325456778 0  0.1001768566329531 0.4023510017391879 0  0.3120260172693757 -0.4540546875576884 0  0.7804062804433681 0.1896628610854537 0  0.4087715451998049 0.187961780041608 0  -0.1584963477271457 0.5451611892421655 0  -0.8926817849258324 0.463022006336401 0  0.2338091473445219 -0.07576267331277289 0  0.08171112182813692 -0.2349087687359925 0  0.04635385178956847 -0.1044635073718474 0  -0.4377391632114205 -0.6448874471423088 0  -0.1907678351227189 0.6480215912813945 0  0.300605946475244 0.4741444604171038 0  -0.2145033720757486 -0.06751709909419711 0  0.6069191921170397 -0.005492331448357812 0  0.0214718770761248 0.6032397936031719 0  0.5476675683364878 0.8992752415326501 0  0.4387475014316537 0.9093708953002239 0  -0.4932997685306436 -0.4381009159993523 0  0.2515197695339056 -0.1791673369138964 0  -0.7291666666666667 -0.6088789682539681 0  -0.9166666666666667 -0.6875 0  0.620579540363709 -0.2122431523583302 0  -0.484950136419973 0.6719440339397442 0  0.2857044415400258 0.0137589173127316 0  -0.8945708364098356 -0.288306105327986 0  0.4043102720140535 0.7842914560451557 0  0.04123256238752064 -0.9026968245801402 0  0.2003676884403109 -0.9091888601740487 0  0.1068775558538842 -0.7373377130403223 0  -0.4804566783514427 -0.1763307203045643 0  0.108286342087769 -0.3993789328997278 0  -0.191883080105361 -0.3640821726430649 0  -0.07025064492006244 0.2984876656890053 0  -0.7039324641409584 0.788312126296613 0  -0.7311286585775438 0.8932502354831682 0  0.5171409396884947 0.1503852691889257 0  0.4229392823658633 -0.003216522184234835 0  -0.5621736087218259 -0.919558629836806 0  -0.626474064879544 -0.7266572613636506 0  0.2446828746617422 0.2867616783302419 0  0.1759429608742923 0.4776611759306416 0  -0.3468240303741654 -0.5260416435617549 0  -0.7465808808425306 0.4069574477998361 0  -0.7819962170660292 0.2802441065650652 0  -0.3742623214119594 -0.8547800509641984 0  0.1014498009713561 0.8506721983266377 0  0.4285217620918213 -0.5230190595570253 0  0.4091738370487775 -0.6256346204225141 0  0.78125 0.46875 0  0.90625 0.53125 0  -0.4791801348852565 0.2553992655702126 0  0.7843318610782772 -0.7086046956885941 0  0.8909728264971901 -0.7355183796514634 0  0.7041908166528879 -0.7830649143180282 0  0.7311821352
[...]
<PointData  Scalars="velocity-2"> 
<DataArray  type="Float64"  Name="velocity-2"  format="ascii">0.0000000000000000e+00  0.0000000000000000e+00  1.0000000000000000e+01  1.0000000000000000e+01  7.7728765970343598e+00  1.0000000000000000e+01  7.7736677957885707e+00  0.0000000000000000e+00  7.7730084701293300e+00  0.0000000000000000e+00  5.2976806324334325e+00  5.2965836406371558e+00  0.0000000000000000e+00  1.0000000000000000e+01  8.9676459988753425e+00  1.0000000000000000e+01  8.9676996026167544e+00  8.7906154861629560e+00  5.8904223115408412e+00  6.8313359816755126e+00  8.9676651675890398e+00  5.4001525370859405e+00  7.9818909651637622e+00  4.2238940773496276e+00  9.2284962263871577e+00  9.4621485053580159e+00  3.3807734302661721e+00  6.8315237199699528e+00  8.0674329370550613e+00  9.3363640849694800e+00  3.7167000302170927e+00  8.6399668666422720e+00  3.2060463188352286e+00  8.5669397609433720e+00  7.8334089190124336e+00  6.7394019577134880e+00  8.7243773014809829e+00  6.9566211288859572e+00  8.3472444204020260e+00  9.4866171297137090e+00  7.2785017804341479e+00  9.4020369814855016e+00  2.9539095224993659e+00  0.0000000000000000e+00  1.0000000000000000e+01  9.4866857128432400e+00  3.0185853605922239e+00  5.5855707667485994e+00  8.7685593451694572e+00  8.4215212154993182e+00  6.8326590880889775e+00  2.9516008741322755e+00  9.4866471668931407e+00  0.0000000000000000e+00  0.0000000000000000e+00  1.0000000000000000e+01  6.8305072709854651e+00  1.0000000000000000e+01  0.0000000000000000e+00  8.4213633804793453e+00  1.0000000000000000e+01  5.9731086487484966e+00  7.9592813257018333e+00  7.2333978052843344e+00  3.9586757769114636e+00  5.3493744989159406e+00  5.4964800915530665e+00  9.2594084696904044e+00  9.0024996973353701e+00  7.7658102805378944e+00  8.1820714501131029e+00  8.3080437883312772e+00  7.4998589312726791e+00  1.9727926450027287e+00  2.0126384544487017e+00  4.5055600864249543e+00  5.6864815253465064e+00  9.6152051427519432e+00  9.5509676547469340e+00  8.9868706555553519e+00  8.1180664451467415e+00  2.1848609657423599e+00  7.5235651681083038e+00  8.9854947610716227e+00  8.5167535791529172e+00  8.9930053397342551e+00  9.2286091742102165e+00  9.6220947177599516e+00  5.1391201190058702e+00  1.7166116669064357e+00  2.2241019504320003e+00  9.7097523911469708e+00  6.7400300154186681e+00  9.6393134652541494e+00  9.1420841464722891e+00  9.7313925423437073e+00  7.3569317586040679e+00  1.5897667102636774e+00  9.7325907454662115e+00  4.2246412523813097e+00  8.3841936019794403e+00  8.4108553166707054e+00  8.2389579521847978e+00  8.5897638416739515e+00  3.1774889545393381e+00  0.0000000000000000e+00  4.6233894400112812e+00  9.3285916530891324e+00  8.7008558609941424e+00  4.7088750351208475e+00  0.0000000000000000e+00  1.8713861294323193e+00  6.5048921096269723e+00  6.6341841640618222e+00  7.4200504659927340e+00  7.6149194287839670e+00  9.2720964876043244e+00  8.8925077357305042e+00  8.6489976907660093e+00  4.3993105278401963e+00  6.3461013692580188e+00  9.2285863840180351e+00  7.2208992475491742e+00  7.9080466792003081e+00  1.0000000000000000e+01  6.1034710759704085e+00  6.1396553803442924e+00  4.4323947997714956e+00  8.1187257054406849e+00  8.3063341374221409e+00  8.4951988767639648e+00  6.4268639945349832e+00  8.6373564557849889e+00  8.9122898996109967e+00  8.3945520839653014e+00  7.7582780485306406e+00  1.8175874831337242e+00  8.1111869215923740e+00  6.1449984789101384e+00  6.7096070215599264e+00  7.7872694689821387e+00  7.3566740416184340e+00  7.5842072281404853e+00  9.7435064816544372e+00  9.7013337075039541e+00  9.7436144655796468e+00  7.2616473523307619e+00  8.6200572672763176e+00  2.5617137253098767e+00  9.4657156294825331e+00  8.2015728627223687e+00  3.1773101489056459e+00  6.1572988395091865e+00  9.2769398678626391e+00  7.3394956097668675e+00  7.9850613439288445e+00  9.2070036194242650e+00  9.0832563790425045e+00  8.7007034785570649e+00  8.9311473498622131e+00  9.7515450876217002e+00  7.5861629303151377e+00  8.1211361912013551e+00  9.7313109693695807e+00  6.6270052888643596e+00  1.5225271467547032e+00  0.0000000000000000e+00  1.0000000000000000e+01  9.7436133196835506e+00  1.5929745986492350e+00  3.0073532480994589e+00  3.3269367306994728e+00  5.0895470370629505e+00  5.5009294594376996e+00  8.9116162208355405e+00  1.5220930264773287e+00  0.0000000000000000e+00  9.3686189240354025e+00  6.1604939682065387e+00  7.0697836814593211e+00  4.2894945542337002e+00  5.8392003525189766e+00  7.5001529094289507e+00  7.7837816936199991e+00  9.7432697227119096e+00  6.1594063140148902e+00  4.2248177481794702e+00  1.0000000000000000e+01  7.3564675553749170e+00  1.0000000000000000e+01  1.0000000000000000e+01  1.0000000000000000e+01  9.2286284088870261e+00  8.1185016557459058e+00  4.2254679849695904e+00  0.0000000000000000e+00  0.0000000000000000e+00  0.0000000000000000e+00  0.0000000000000000e+00  1.0000000000000000e+01  1.0000000000000000e+01  9.2442179846359398e+00  7.5698464923412301e+00  1.4987013842709105e+00  9.7371262414922448e+00  3.6208090259682439e+00  5.0061088028847784e+00  3.6849256094971659e+00  3.4040236628928842e+00  1.4880216839101801e+00  6.0887340860855765e+00  9.1995422114229264e+00  8.7321823819088582e+00  9.5084432169409112e+00  8.6627741155279061e+00  4.7295093551172229e+00  9.2311814175548914e+00  8.3112140502128167e+00  9.2023432051217569e+00  8.7582695904449590e+00  4.5420418921605652e+00  9.4407268774300803e+00  9.0145039028987206e+00  5.2150432748753950e+00  8.9899074843027815e+00  6.2453589125203397e+00  8.2959991118539680e+00  4.3766858157981261e+00  6.1194651565778706e+00  6.6107572128952654e+00  8.9803645054537995e+00  7.4721790061141995e+00  9.5175143737999726e+00  9.5132384811594264e+00  6.7515359216614703e+00  8.6754888882799985e+00  6.9056408950037236e+00  7.1739121504337087e+00  8.0538940184300856e+00  8.5623409953767364e+00  9.5493137317209857e+00  8.7738380742177444e+00  7.2279650069276364e+00  1.3099744111839382e+00  8.3837844284512606e+00  8.0043953906706378e+00  7.9073918641650556e+00  5.7499871327132537e+00  7.0960460179948726e+00  8.5365899783939163e+00  6.9948795245671738e+00  9.1911194939893779e+00  7.8366293736581341e+00  9.0676671434522920e+00  8.8379850134349827e+00  5.3444533456945580e+00  8.4250020639865699e+00  3.1772867346477600e+00  1.0201396683350388e+00  9.2193582243418888e+00  5.4085868054219013e+00  8.5029956468661982e+00  1.2869904375922860e+00  8.7640260724016024e+00  7.8931982375694973e+00  8.3048676412564184e+00  8.0712388324263724e+00  5.4428801623752463e+00  8.0751533906506978e+00  7.0913827800852633e+00  7.5494690966743212e+00  3.4426829599285353e+00  3.1579600997155235e+00  9.0037521119653210e+00  8.8040345156493967e+00  4.7882585754138143e+00  4.2103353280940325e+00  8.4091455710039789e+00  8.2457095012408494e+00  6.3248188268101462e+00  2.9899709060995643e+00  2.6003923081498135e+00  6.1617018548904365e+00  8.0571217229068282e+00  8.8158848493107360e+00  8.7745131192999164e+00  9.5509234216635281e+00  9.8076528605614239e+00  5.4528603021968571e+00  9.5573148413591600e+00  9.7764346756538263e+00  9.3923926033339153e+00  9.4479786846928047e+00  1.0029817004383568e+00  1.1389899763491125e+00  2.5733726715275753e+00  6.9084169926916417e+00  2.3994400940592717e+00  1.2494288663597621e+00  1.1101792424120973e+00  2.0989760182805597e+00  2.0779958274004393e+00  9.7799891480190499e+00  6.6483631566130965e+00  4.6206518955740492e+00  8.7083225780130338e+00  7.5285778654206661e+00  7.8393409094564364e+00  7.1931374916984039e+00  2.7493283930810435e+00  8.5652649670949472e+00  8.1080382992313549e+00  6.0874378302791881e+00  6.4243031562170705e+00  9.6148087880053124e-01  9.0986746999065105e+00  9.7852798424549352e+00  9.8086231079407575e+00  9.7443260781045993e+00  5.0625578802432107e+00  5.5035751159234385e+00  4.5012946449051796e+00  8.3997367767758782e+00  9.4775225925635826e+00  6.4334941445379750e+00  8.5823345221813145e+00  8.3836281004870425e+00  7.2230116746116888e+00  8.9119095715171035e+00  7.1459424571096593e+00  4.1982393658234702e+00  9.4545864958665735e+00  6.5154362114071089e+00  9.5486421088559990e+00  2.0760680586253950e+00  9.8090789269085494e+00  8.2149803056398485e-01  5.1802078801624685e+00  9.3197940582551517e+00  9.1798657288001646e+00  9.1535989468754089e+00  7.5758737963942071e+00  2.5347334798125583e+00  8.0159391343056363e-01  9.5930661603667229e+00  9.8662655232715046e+00  6.5411938437413548e+00  8.5632352706243413e+00  9.0267525730856253e+00  8.8350907805131680e+00  9.8662998307808785e+00  9.6151384409293179e+00  8.5000959696335503e+00  8.1286789936247814e+00  5.7506249883791831e+00  2.8790641405286332e+00  2.4834659457766652e+00  3.8301305972757187e+00  9.8661693588541759e+00  7.6823295735809116e-01  7.6880234788174728e-01  9.8662312945056563e+00  9.8656902808192246e+00  7.9526814286668541e+00  9.8569698274819950e-01  9.8655699264723946e+00  9.4039490461328175e+00  9.1409307286861985e+00  8.0884382480941071e+00  8.2722517400976692e+00  9.3578690287776247e+00  8.7233361561659901e+00  8.6259099247127420e+00  7.7775868692598484e+00  8.0131391983938087e+00  8.0163522381296226e-01  3.6218936897724121e+00  9.3901970251898117e+00  6.8411406805757942e+00  7.2583485224837965e+00  5.4882210768535851e+00  7.7565045523688712e+00  8.2738377149270708e+00  5.2400323800581958e+00  6.6479827822091178e+00  6.1553664835438449e+00  6.9608921799342882e+00  9.1315872474382935e+00  8.8430215911361181e+00  9.6348705077421464e+00  7.7905097027525745e+00  5.1937261488556841e+00  2.3071838867386800e+00  6.6013759380324091e+00  9.4513918717121115e+00  9.6647878962125571e+00  1.0197092611900103e+00  9.0666517009247127e-01  9.1060431912542832e+00  9.3764488696995318e+00  6.9782374024527778e+00  9.3505045484113545e+00  7.3525014239478654e+00  8.4511205653200605e+00  9.0615155851063545e+00  5.7945612277693668e+00  4.8813424598081534e+00  7.6276844170715421e+00  7.7404300270941491e+00  7.5679123898693996e+00  8.1613912005996259e+00  4.8641979220246663e+00  4.0541326262516133e+00  4.3837783212095784e+00  4.1117273729274135e+00  4.9346290973602498e+00  4.7886583166292489e+00  7.5326784918780882e+00  7.7640730218117042e+00  7.1137025757479480e+00  8.9715724311888696e+00  8.4322964348852878e+00  3.8405666385565782e+00  4.8840247820486571e+00  9.4818226795976788e+00  7.3144479975174681e+00  8.7830497241344823e+00  9.0576237944151732e+00  8.8306870511877893e+00  5.7515750810662372e+00  8.3379407763519122e+00  6.5850427855382812e+00  6.6076035615762043e+00  8.1978101184983547e+00  7.7974781504341655e+00  8.1061799761511484e+00  8.3174294238746000e+00  7.5175620996091803e+00  6.1745265854411171e+00  5.9603754239411284e+00  9.6315121160467072e+00  9.8708844621265524e+00  8.5729005778883298e+00  1.0766724852157661e+00  7.2626763692170853e+00  8.8691869616762489e+00  6.4562512747256777e+00  9.6445905302806221e+00  5.8147183411930516e+00  8.5354490021403748e+00  6.9459161303298291e+00  5.6827089450085762e+00  9.8548609930899982e+00  1.2589561939509128e+00  8.1771170178952648e+00  9.2280720546730208e+00  9.7511914212354664e+00  7.6696828378152859e-01  9.5640682568132060e+00  7.1092380397816832e+00  6.4015739482920981e+00  3.6902235100134506e+00  9.6459378156579989e-01  8.4546386360397214e+00  2.4862771447067349e+00  3.8428476988143063e+00  3.9069252658442810e+00  7.8741300766653950e+00  7.8788645162857982e+00  9.3578987495177355e+00  9.3059855085570309e+00  8.4212664100243408e+00  1.0000000000000000e+01  5.8396233563544317e+00  2.2865653116546687e+00  9.0712304536105144e+00  6.6656723181297775e+00  6.1526012445431784e+00  7.5509564060747509e+00  4.1578076125362298e+00  3.6112945965119012e+00  9.1270379564073707e+00  9.4258538266103535e+00  4.9847326191420605e+00  4.8285243120328722e+00  8.5631559385546119e+00  6.0593713024264044e+00  8.2154813639339537e+00  5.8693136281984044e+00  7.2837706200980046e+00  7.0270591449483213e+00  7.5277825173337440e+00  1.0000000000000000e+01  9.7169927803486580e+00  9.0342709606286018e+00  8.8870174488890843e+00  1.7701537701513224e+00  9.3642065560040724e+00  9.1515305187718319e+00  8.5194503431895310e+00  7.6901512294821162e+00  3.6133910986762703e+00  9.8641354195782185e+00  7.1820942205744753e+00  6.8663125142949708e+00  3.2990484235264077e+00  2.2329573203920172e+00  8.8526080126464795e+00  9.2136654433933920e+00  7.0555689515305069e+00  7.8754387302955582e+00  8.2145708058315421e+00  8.2437496869847653e+00  8.1012722813876010e+00  4.1689790519167085e+00  9.1426260079139556e+00  0.0000000000000000e+00  3.9242709345480988e+00  4.5990846312824534e+00  7.4235925475777211e+00  5.8380810923793049e+00  6.4253284669980602e+00  9.6680803462989182e+00  8.7780851876975259e+00  8.8825020635801586e+00  7.5093616198952091e+00  8.6656439507285421e-01  9.3477970250113316e+00  7.3514346869733487e+00  7.7022233776748683e+00  7.7194154473647902e+00  1.0000000000000000e+01  9.2831077893769542e+00  9.1149035999866044e+00  9.3171429545935052e+00  6.2795695677106114e+00  9.8717505910198948e+00  9.6793899900710088e+00  9.8506621897845541e+00  0.0000000000000000e+00  9.8717893142886837e+00  7.3792585346408321e+00  2.8486296437053000e+00  3.6072996681298823e+00  8.5765567356340586e+00  8.5859690532237884e+00  8.6914599034474076e+00  8.6540969852374605e+00  9.8579050110798487e+00  9.6220887435429479e+00  8.2433717626599989e+00  8.0288915184745431e+00  1.8862161519549090e+00  6.9474210371476612e+00  7.9844707941685256e+00  6.7582171354683531e+00  5.4318065018118791e+00  2.6904855105680614e+00  3.7645886492702458e+00  2.6072340480269398e+00  6.4714419275570654e+00  9.3618166305494910e+00  4.3286504249286581e+00  8.7769743611644007e+00  0.0000000000000000e+00  4.9476773591294343e+00  9.8617410028684187e+00  1.4985114043681582e+00  8.6695343076518636e+00  7.9261803830495046e+00  6.2034362752379284e+00  8.3336690674156806e+00  7.9365903404343854e+00  7.5839034591375665e+00  7.7717206668783083e+00  8.8657484391356185e+00  9.8657107341481201e+00  2.3662208186807785e+00  9.5986323895182082e+00  7.9720375295013168e+00  9.8688479820373125e+00  8.1829978802398617e+00  8.6397399428128026e+00  7.7868699024454555e+00  4.7239788095352768e+00  7.4794629244940429e+00  1.0000000000000000e+01  7.9920858060709916e+00  2.6471156247947500e+00  8.5365617760056818e+00  3.2583379861697481e+00  7.3518433402246091e+00  9.5951141744781641e+00  8.9684460361206018e+00  2.9287409853248398e+00  2.7011479599261401e+00  6.3869709761938287e+00  2.2378074707797229e+00  4.7000827074666836e+00  5.3160713520068166e+00  4.9948760257904565e+00  5.6792229997158179e+00  5.5244044086076745e+00  9.8656442158682349e+00  1.0000000000000000e+01  3.2242119693199376e+00  7.9987957675475752e+00  9.2314956116675031e+00  8.9267673962531706e+00  8.8022837762630051e+00  9.0518412483392456e+00  9.6901586495514440e+00  7.1118658180094680e+00  9.5004208694984111e+00  6.8805822803103123e+00  7.1005974804962975e+00  8.4254345156560255e+00  9.6437614419357001e+00  8.1523502483775037e+00  6.2166106085676196e+00  9.3036204710342947e+00  7.3402781544283888e+00  8.2303772837294567e+00  9.3192780709745815e+00  9.2634183825239287e+00  7.9535969230977246e+00  0.0000000000000000e+00  9.6510274658254112e+00  0.0000000000000000e+00  9.2222831544903396e+00  7.5759016884342811e+00  5.7586721837893631e+00  5.7903629025234000e+00  5.8470996480038142e+00  8.6552263762051407e+00  7.3045060618889108e+00  9.0986353235037054e+00  3.0721746061982018e+00  7.0117936058020804e+00  9.4087642952773152e+00  9.0029016369580166e+00  3.1788543706660541e+00  7.3144095960342179e+00  7.3534686411822765e+00  7.9243554090657575e+00  9.5491582730880271e+00  9.1281200881289024e+00  8.7016696224439016e+00  8.4649592913485883e+00  9.3839143478171483e+00  9.7380600456956401e+00  9.8717176871198369e+00  8.9659589868927103e+00  1.8182092047417253e+00  7.7736777904252321e+00  8.4119295213628831e-01  8.1173771823509817e+00  9.8717625938938127e+00  1.0000000000000000e+01  1.0000000000000000e+01  9.6152599626252471e+00  6.5160608217351079e+00  9.3578156497433405e+00  0.0000000000000000e+00  7.6653281595251899e-01  7.9531237001350110e+00  0.0000000000000000e+00  1.0000000000000000e+01  5.7529901619620647e+00  9.6152712215540621e+00  1.0000000000000000e+01  8.8353596403508678e+00  8.5633988399791079e+00  1.0000000000000000e+01  1.0000000000000000e+01  1.0000000000000000e+01  0.0000000000000000e+00  0.0000000000000000e+00  0.0000000000000000e+00  7.5759450442797691e+00  0.0000000000000000e+00  6.5179089006073267e+00  9.0987000778182487e+00  0.0000000000000000e+00  2.2538309838062238e+00  2.2550511443630463e+00  0.0000000000000000e+00  4.7867839143595745e+00  8.2743365695221325e+00  0.0000000000000000e+00  8.8352177976832493e+00  1.0000000000000000e+01  1.0000000000000000e+01  9.8718194095459157e+00  0.0000000000000000e+00  8.2743397146472741e+00  0.0000000000000000e+00  7.5752266158647057e+00  1.0000000000000000e+01  1.0000000000000000e+01  5.0406683394235392e+00  9.0047706138754151e+00  6.6627652285746175e-01  8.3956643768150858e+00  8.2243988199483624e+00  9.1815414269376969e+00  6.9723885360734332e+00  4.8056805029122884e+00  5.1995141035344243e+00  4.3987186479195071e+00  9.5934390659327775e+00  3.9248426081044392e+00  7.2268849104774402e-01  3.4119367986053319e+00  9.4218563849062651e+00  1.5426080350483038e+00  1.9115353986907306e+00  7.5426010756320161e-01  1.5532951090664173e+00  1.1461692735998046e+00  1.7063277221841759e+00  1.5892117113308795e+00  9.6061081249873954e+00  9.4653686603614027e+00  5.0240372754176619e+00  8.1340056547371447e+00  9.8584864451668910e+00  2.2159175073498023e+00  8.5029759662300997e+00  7.2468510588527328e+00  3.2521811039419251e+00  6.9990531484268423e+00  5.8713883533582978e+00  6.6821721265055993e+00  9.0386815251032395e+00  9.6700304496110672e+00  4.6957642965041293e+00  9.5303334968412443e+00  9.4148484490733377e+00  8.6517435272134993e+00  6.5413552215193738e+00  7.6569117611828332e+00  8.7596975001610673e+00  5.5041524784600355e+00  8.0035069725166377e+00  9.5940162059568959e+00  5.8448678595117860e+00  8.4348142081592901e+00  9.2872786609034410e+00  9.0729417032652364e+00  9.2635581198078736e+00  7.3860715461688609e-01  5.4682628602160746e+00  5.0026272234302454e+00  4.5129281904225627e+00  3.1245473247095172e+00  3.8490973717959167e+00  7.1653258556526547e+00  7.9089533226431197e+00  7.6963982770404851e+00  9.0879849207573393e+00  9.7448842777286711e+00  9.6533973460046187e+00  8.9520856594908729e+00  8.8790930966205277e+00  7.0379200088680056e+00  7.9258835882522840e+00  2.8806456758988679e+00  3.2834077663975827e+00  4.1936027907746229e+00  3.8246853724612131e+00  4.4670848524256428e+00  4.2790040521500377e+00  3.9658030038178653e+00  8.4874458474450769e+00  8.4517093538145218e+00  6.9433995754824842e+00  8.2593728491433946e+00  9.5796211528935142e+00  6.4486980411930208e+00  5.9110430051412628e+00  9.8858984191305233e+00  9.4200232137962114e+00  9.4943884599849504e+00  8.0245813634829215e+00  2.1998994851636153e+00  8.5183385143355626e+00  7.6796485277950346e+00  6.3941191602927017e+00  8.7509423189436468e+00  9.1090628689934459e+00  4.0208395738729257e+00  9.3510938021037830e+00  9.2494067783211342e+00  9.0842597424060987e+00  9.8668554556110522e+00  9.4899059342924073e+00  9.5351313227990815e+00  9.6585364473623354e+00  9.3736524979148097e+00  6.1360340735441090e+00  2.7171482960771747e+00  3.8193218085453493e+00  9.8711662100054092e+00  6.2504033676404411e+00  3.8450062269171776e+00  8.5333285843691211e+00  8.7722442758744563e+00  7.4236507017082447e+00  6.7307915472878950e+00  7.6290851216579370e+00  4.8853276016375942e+00  5.1023127253814726e+00  4.7555554204275410e+00  6.1200788013602181e-01  6.0556730132697467e+00  9.2598462874157867e+00  9.1075187482967266e+00  3.3513188982859323e+00  9.6842491872876426e+00  9.1282112706988290e+00  9.3801048162871599e+00  8.9075773363297941e+00  8.4271902319044845e+00  3.9206903563805837e+00  3.4212173544723172e+00  2.7658814463667696e+00  2.9565741954362981e+00  8.2743601898658863e+00  9.06360