<?xml version="1.0"?>
<VTKFile type="UnstructuredGrid"  version="0.1"  >
<UnstructuredGrid>
<Piece  NumberOfPoints="2513" NumberOfCells="4852">
<Points>
<DataArray  type="Float64"  NumberOfComponents="3"  format="ascii">-1 1 0  -1 -1 0  1 -1 0  1 1 0  0 -1 0  1 0 0  0 1 0  -1 0 0  0 0 0  -1 -0.5 0  -0.5 -1 0  -0.5 1 0  -1 0.5 0  1 -0.5 0  0.5 -1 0  1 0.5 0  0.5 1 0  0.4166666666666666 -0.4166666666666667 0  -0.4166666666666667 0.4166666666666667 0  -0.25 -0.5 0  0.5 0.25 0  -0.4861111111111112 -0.06944444444444445 0  0.0732758620689655 0.507183908045977 0  -0.625 -0.625 0  0.625 0.625 0  0.7380952380952381 -0.25 0  -0.7099116161616161 0.2105429292929293 0  -0.25 0.7380952380952381 0  0.105392156862745 -0.6348039215686275 0  0.6770833333333334 -0.6770833333333333 0  -0.6770833333333334 0.6770833333333334 0  0.3472222222222222 -0.06944444444444446 0  -0.7264957264957265 -0.3044871794871795 0  0.3141940982507127 0.7297313660835709 0  0.02049587951122483 -0.3227479397556124 0  -0.2690972222222223 0.1475694444444444 0  0.3859500089908372 -0.7274430156831472 0  -0.2228477945123298 -0.1761765495248019 0  0.2182539682539683 0.1884920634920635 0  0.75 0.375 0  -0.145442219440968 -0.7602211097204841 0  0.7088913690476191 0.0427827380952381 0  -0.75 -1 0  -1 -0.75 0  1 0.75 0  0.75 1 0  -0.7439982703698937 -0.04614153195464455 0  -0.4609235096577606 -0.3356498099556895 0  0.4063134471431929 0.4895621842856023 0  0.25 -1 0  -0.25 -1 0  -0.75 1 0  0.75 -1 0  -1 -0.25 0  -1 0.25 0  1 -0.25 0  -0.25 1 0  1 -0.75 0  -1 0.75 0  0.25 1 0  1 0.25 0  -0.4041423272138783 -0.7597141090712928 0  0.06500839607911253 0.7578103030529481 0  -0.1572801182352047 0.3838997021864289 0  -0.6528005242053915 0.4409494757946086 0  -0.4930160984848485 0.1544744318181818 0  -0.4732142857142858 0.7752976190476191 0  0.6398809523809523 -0.4538690476190476 0  0.5166054117396399 -0.2161233620965164 0  -0.002273787244753427 0.2232363985975174 0  0.1500564496765022 -0.1524955293952667 0  0.2016720420046758 -0.4410343282803009 0  -0.08495178036419618 0.6274139771124571 0  -0.8367311471133162 0.3642591720794645 0  -0.8333333333333334 -0.625 0  -0.594323836800685 -0.8231079456002283 0  -0.4466957714776065 -0.5349126855671806 0  0.8125 0.5625 0  0.78125 0.78125 0  0.5091392650016769 0.7947130883338923 0  0.125 -0.8382681931833136 0  -0.8184523809523809 -0.8184523809523809 0  -0.07781530426104531 -0.5819319697006881 0  0.5085055196703295 0.04967610411902112 0  0.2918471072074933 -0.276017202318847 0  0.5120763537765269 -0.5898771553229597 0  0.625 -0.8585349462365591 0  0.8158532234335381 -0.8158532234335381 0  -0.5198088446315396 0.5739411553684605 0  -0.8585349462365591 0.625 0  -0.8150493805516597 0.8156205699829586 0  0.8585349462365591 -0.625 0  -0.2688268348649726 0.5439331383603209 0  0.8242100426758139 -0.4436043596336612 0  0.5833756314287952 0.4479378157143976 0  0.8690476190476191 -0.125 0  -0.125 0.8690476190476191 0  -0.8692745600729823 0.125 0  0.8696725120759167 0.125 0  -0.625 0.8711516477451908 0  0.2339522463269718 0.3879558377955778 0  0.2453709502295031 0.5655822922838026 0  0.1730610651637797 0.02021709580868947 0  0.3245402594056757 -0.5644672020485209 0  -0.7291666666666666 -0.4816595441595442 0  -1 -0.375 0  -0.5811140848639904 -0.2127276307675001 0  0.673332592838314 0.2158348143233718 0  0.375 1 0  -0.5714768890989919 0.2985103444040069 0  -1 -0.125 0  -0.8453692574786325 -0.1875 0  -0.3144549134065865 -0.02408675326008025 0  -0.2898414972096258 -0.3336092734780093 0  -0.1075052092206287 -0.4224330421314983 0  -0.05043970703604117 -0.1652278959397459 0  0.6459672950297897 -0.1113415301525317 0  0.4645210271029513 0.6398480556579343 0  0.3512863754411909 0.0937979496253573 0  -0.6063160985568274 0.03891469652249891 0  -0.3428819444444445 0.8690476190476191 0  0.625 1 0  -0.1602164796159982 0.02697860906625157 0  0.04648110064133829 -0.4808416424239687 0  1 0.875 0  -0.3836102479201657 0.6484936449177356 0  -0.3776011723096096 0.263078478984336 0  -0.6024978259969829 -0.3949628096211138 0  0.125 1 0  0.2010781308272777 0.8456221018461906 0  0.2822509696388829 -0.845902544691141 0  -0.3285533674953515 -0.6289773550938936 0  0.3461306793221754 0.278777492464833 0  0.4737475672408696 -0.8508448959534423 0  0.2384632828836344 -0.7029523187242811 0  -0.004777287059791593 0.3759269695907358 0  -0.8499735021850066 -0.3912320205328522 0  0.1222536293721587 0.2963971539625205 0  -0.3769456520999688 -0.203572526805711 0  -0.2749617205755651 -0.8464290792698902 0  0.004805888512766143 -0.747174355248311 0  -0.125 -1 0  -0.06001061822252458 -0.8724007765244854 0  0.875 0.4375 0  0.854421179608893 0.271342359217786 0  0.875 1 0  -0.1499861095763589 0.2358309656934888 0  0.3381943639137225 0.8663061796405532 0  -0.7853090110442228 0.4998412775277108 0  0.7398165998560814 -0.5535192694951373 0  0.1580042122341573 -0.3100246140259917 0  -0.7291666666666667 -0.7142857142857142 0  -0.375 -1 0  0.6483368386154684 0.8514905990110488 0  -0.1295370103291928 -0.2826118305021242 0  0.07458201853700455 0.1123894386563915 0  0.6146465857036327 -0.3161203659316075 0  0.5551898493894731 -0.740296118159085 0  0.375 -1 0  0.482702798370208 -0.084133350091034 0  0.87890625 0.68359375 0  -0.05917195534525846 0.4971092425697621 0  0.1260710309213975 0.6343750312956699 0  0.8690476190476191 -0.3077066815262848 0  -0.2912010232560567 0.3668168386732139 0  -0.875 1 0  -1 0.875 0  1 -0.875 0  0.875 -1 0  -0.8689564281364567 -0.006189266075306407 0  -0.7449425635110547 0.08458938160051771 0  -0.7150266761936593 -0.1739444581417552 0  -0.5260034831318311 -0.711099823962112 0  -0.4724626808827322 -0.871722230709409 0  0.4734436795977052 0.377714794132168 0  -0.875 -1 0  -1 -0.875 0  0.6927189078571988 0.5156567235715964 0  -0.3742497615796874 -0.4296005251260107 0  -0.1969436423297711 -0.6387157229772615 0  -0.6179496409766825 -0.08933356056510935 0  -0.424405057115988 0.04452428810878029 0  -0.08479048335844169 0.1279607007132633 0  0.003830300099055113 0.8712085230656206 0  0.8748778838820267 -1.379218479898026e-05 0  -0.375 1 0  -0.625 1 0  1 0.125 0  -0.125 1 0  1 -0.375 0  1 -0.125 0  1 -0.625 0  0.625 -1 0  0.125 -1 0  -0.625 -1 0  -1 -0.625 0  -1 0.125 0  -1 0.375 0  -1 0.625 0  1 0.375 0  1 0.625 0  0.6325660748712082 0.3335187599557389 0  -0.06420945895056573 0.7549874027425891 0  -0.8769015540914771 0.2478802253893416 0  0.871875 0.871875 0  -0.6868091492840067 0.3270978624973681 0  -0.5363597469565949 0.412994850055505 0  -0.6803734992638302 0.5574295000651103 0  -0.7076253581162534 -0.8803439094224437 0  -0.8778089002295137 -0.5106896447504627 0  -0.3860184984222981 0.530566778071246 0  0.6109900617121508 0.1128453077697081 0  0.3896945134930274 -0.1915382873255086 0  0.7605656944697778 -0.06822134873122943 0  0.3576151269893478 0.5948388411612135 0  -0.5689902680792265 -0.5143596830118065 0  0.6262446286847614 -0.5735657901943212 0  0.2030558252325225 -0.5625263842513452 0  0.6123273142928579 0.7407533260723429 0  0.4016460890123554 -0.3042863223111857 0  -0.59039693199147 0.7578418819188018 0  0.7276932493917544 -0.3705808024528924 0  0.5222536818742854 -0.4713886230400014 0  -0.5101986527137737 0.8848365765607674 0  0.510560172809238 0.5356013299918891 0  -0.3603569195756083 0.75823710606415 0  0.1967279277813232 0.728226870058472 0  -0.6086880986371127 0.1545624071548516 0  -0.38105366729386 0.1511189987807864 0  -0.2944659463671584 -0.7359061804869591 0  0.5060729154966499 -0.3475227845833823 0  -0.09281616240412746 -0.06197858250969457 0  0.7649739583333334 0.6673177083333334 0  0.7628906249999999 0.890234375 0  -0.2666864184909611 0.2585504071132311 0  0.3635064892129658 0.3878003602709461 0  -0.2339409722222222 0.8901937905844155 0  -0.1718792125974916 -0.8957733325456778 0  0.1001768566329531 0.4023510017391879 0  0.3120260172693757 -0.4540546875576884 0  0.7804062804433681 0.1896628610854537 0  0.4087715451998049 0.187961780041608 0  -0.1584963477271457 0.5451611892421655 0  -0.8926817849258324 0.463022006336401 0  0.2338091473445219 -0.07576267331277289 0  0.08171112182813692 -0.2349087687359925 0  0.04635385178956847 -0.1044635073718474 0  -0.4377391632114205 -0.6448874471423088 0  -0.1907678351227189 0.6480215912813945 0  0.300605946475244 0.4741444604171038 0  -0.2145033720757486 -0.06751709909419711 0  0.6069191921170397 -0.005492331448357812 0  0.0214718770761248 0.6032397936031719 0  0.5476675683364878 0.8992752415326501 0  0.4387475014316537 0.9093708953002239 0  -0.4932997685306436 -0.4381009159993523 0  0.2515197695339056 -0.1791673369138964 0  -0.7291666666666667 -0.6088789682539681 0  -0.9166666666666667 -0.6875 0  0.620579540363709 -0.2122431523583302 0  -0.484950136419973 0.6719440339397442 0  0.2857044415400258 0.0137589173127316 0  -0.8945708364098356 -0.288306105327986 0  0.4043102720140535 0.7842914560451557 0  0.04123256238752064 -0.9026968245801402 0  0.2003676884403109 -0.9091888601740487 0  0.1068775558538842 -0.7373377130403223 0  -0.4804566783514427 -0.1763307203045643 0  0.108286342087769 -0.3993789328997278 0  -0.191883080105361 -0.3640821726430649 0  -0.07025064492006244 0.2984876656890053 0  -0.7039324641409584 0.788312126296613 0  -0.7311286585775438 0.8932502354831682 0  0.5171409396884947 0.1503852691889257 0  0.4229392823658633 -0.003216522184234835 0  -0.5621736087218259 -0.919558629836806 0  -0.626474064879544 -0.7266572613636506 0  0.2446828746617422 0.2867616783302419 0  0.1759429608742923 0.4776611759306416 0  -0.3468240303741654 -0.5260416435617549 0  -0.7465808808425306 0.4069574477998361 0  -0.7819962170660292 0.2802441065650652 0  -0.3742623214119594 -0.8547800509641984 0  0.1014498009713561 0.8506721983266377 0  0.4285217620918213 -0.5230190595570253 0  0.4091738370487775 -0.6256346204225141 0  0.78125 0.46875 0  0.90625 0.53125 0  -0.4791801348852565 0.2553992655702126 0  0.7843318610782772 -0.7086046956885941 0  0.8909728264971901 -0.7355183796514634 0  0.7041908166528879 -0.7830649143180282 0  0.7311821352
[...]
<PointData  Scalars="velocity-2"> 
<DataArray  type="Float64"  Name="velocity-2"  format="ascii">0.0000000000000000e+00  0.0000000000000000e+00  1.0000000000000000e+01  1.0000000000000000e+01  5.5745361892840366e+00  1.0000000000000000e+01  5.5747403145685253e+00  0.0000000000000000e+00  5.5745291749796886e+00  0.0000000000000000e+00  2.9316414542257685e+00  2.9315095634426558e+00  0.0000000000000000e+00  1.0000000000000000e+01  7.8821504268034683e+00  1.0000000000000000e+01  7.8821235472432933e+00  7.5156214899605001e+00  3.3965011431515575e+00  4.2983504738077292e+00  7.8819891073251673e+00  3.0094904818582426e+00  5.9314286462359247e+00  2.2173635249743091e+00  8.4218386377439938e+00  8.9025189310214046e+00  1.7231943291110390e+00  4.2983728330897337e+00  6.0855487340303780e+00  8.6440137847075320e+00  1.9149854138696147e+00  7.2057017732017483e+00  1.6258837849239736e+00  7.0565599445873186e+00  5.6750883136890069e+00  4.1971034745438764e+00  7.3791166000229964e+00  4.4414148002600058e+00  6.6168325044810494e+00  8.9528110358242614e+00  4.8432141618262197e+00  8.7790002803220020e+00  1.4877644913180328e+00  0.0000000000000000e+00  1.0000000000000000e+01  8.9528407877208487e+00  1.5230707491578186e+00  3.1505992763370263e+00  7.4697974002903154e+00  6.7636541689492216e+00  4.2985460901531267e+00  1.4876098202162102e+00  8.9528941417061105e+00  0.0000000000000000e+00  0.0000000000000000e+00  1.0000000000000000e+01  4.2982114391020456e+00  1.0000000000000000e+01  0.0000000000000000e+00  6.7635371304090492e+00  1.0000000000000000e+01  3.4657000151212021e+00  5.8915235393052230e+00  4.7825257908880081e+00  2.0564147888763857e+00  2.9707960598526801e+00  3.0819022350040979e+00  8.4855550707040646e+00  7.9542936913183295e+00  5.5632480122501953e+00  6.2978818245534764e+00  6.5398906012237905e+00  5.1512079211940529e+00  9.7446491598003582e-01  9.9464313185324282e-01  2.3941622122373243e+00  3.2299499903872579e+00  9.2158833249435279e+00  9.0844961686352743e+00  7.9219182982880563e+00  6.1789515422636043e+00  1.0829822496512489e+00  5.1870092865852060e+00  7.9191388356209815e+00  6.9549980278370329e+00  7.9346444787125225e+00  8.4218530648990502e+00  9.2299823433888388e+00  2.8194250275139847e+00  8.4479385306301569e-01  1.1031906694303200e+00  9.4089414090939609e+00  4.1984472965871884e+00  9.2650856775432491e+00  8.2432146466725058e+00  9.4529678824670711e+00  4.9480853174896637e+00  7.8088936708867884e-01  9.4555945628496989e+00  2.2174694923973073e+00  6.6895286622424495e+00  6.7422902075074322e+00  6.4061201136822943e+00  7.1033561887559262e+00  1.6102348057474543e+00  0.0000000000000000e+00  2.4700055878176750e+00  8.6280448284713582e+00  7.3304490137246043e+00  2.5253562382218258e+00  0.0000000000000000e+00  9.2308729011800728e-01  3.9543981763483198e+00  4.0863731672685457e+00  5.0369851734799287e+00  5.3243467406993670e+00  8.5114722446971971e+00  7.7266405255146227e+00  7.2239858691191774e+00  2.3253822014414340e+00  3.8006859462691813e+00  8.4219124851797194e+00  4.7672254976538442e+00  5.8018494036149271e+00  1.0000000000000000e+01  3.5785976713625627e+00  3.6114161279273822e+00  2.3472331563695299e+00  6.1792458785339148e+00  6.5369452022255263e+00  6.9113568441886484e+00  3.8782259561960997e+00  7.2006308276904107e+00  7.7672268609999966e+00  6.7102877826747465e+00  5.5509309556457183e+00  8.9573590366028155e-01  6.1659115755910259e+00  3.6151509730422933e+00  4.1658099125770747e+00  5.5981844315886153e+00  4.9480256413265122e+00  5.2766033757097768e+00  9.4778738409644188e+00  9.3917154779840928e+00  9.4778680008847882e+00  4.8200133553332982e+00  7.1650029726503242e+00  1.2792419285890535e+00  8.9097990278747705e+00  6.3352182592164965e+00  1.6101824975951342e+00  3.6258242087704189e+00  8.5215939484947523e+00  4.9247967165775695e+00  5.9376040833747803e+00  8.3775350090294349e+00  8.1216576551858068e+00  7.3303291965403865e+00  7.8064677841548260e+00  9.4942036651226882e+00  5.2806140357444544e+00  6.1841427011039132e+00  9.4529611722674858e+00  4.0790808606296123e+00  7.4684241774042059e-01  0.0000000000000000e+00  1.0000000000000000e+01  9.4779007179324299e+00  7.8274412606272525e-01  1.5174479248586128e+00  1.6931864169648412e+00  2.7843281205582580e+00  3.0860021522676346e+00  7.7658866313885833e+00  7.4680055627388719e-01  0.0000000000000000e+00  8.7104137388495406e+00  3.6297891006830381e+00  4.5768500811382857e+00  2.2580989288266355e+00  3.3537015697556374e+00  5.1519687542152024e+00  5.5932100479479949e+00  9.4773593587842218e+00  3.6260964780117502e+00  2.2174961695970996e+00  1.0000000000000000e+01  4.9479789657844302e+00  1.0000000000000000e+01  1.0000000000000000e+01  1.0000000000000000e+01  8.4219264909282021e+00  6.1792057744574089e+00  2.2175108483333674e+00  0.0000000000000000e+00  0.0000000000000000e+00  0.0000000000000000e+00  0.0000000000000000e+00  1.0000000000000000e+01  1.0000000000000000e+01  8.4542056384870108e+00  5.2554680275168977e+00  7.3544535510103959e-01  9.4648108837962486e+00  1.8584383065702270e+00  2.7256363414962115e+00  1.8959052139677868e+00  1.7365093057075311e+00  7.3003408053146657e-01  3.5654064622466315e+00  8.3618285282300935e+00  7.3956203268242380e+00  8.9973834476379206e+00  7.2523084531126578e+00  2.5394482140309025e+00  8.4272192281601459e+00  6.5462696794910871e+00  8.3675959283137722e+00  7.4489903047006534e+00  2.4168506313378049e+00  8.8585828801638922e+00  7.9789051063633138e+00  2.8737320361261784e+00  7.9280416937381837e+00  3.7058026530777504e+00  6.5166776370648991e+00  2.3116360961400919e+00  3.5926329424358250e+00  4.0616977768637037e+00  7.9085162210921753e+00  5.1114112084740082e+00  9.0159518880940670e+00  9.0071900470836557e+00  4.2099838538587404e+00  7.2786690774147678e+00  4.3829935102121667e+00  4.7069701599488818e+00  6.0606523081724850e+00  7.0468714996083310e+00  9.0809900776172849e+00  7.4806997165431284e+00  4.7761593964432061e+00  6.4137523562155641e-01  6.6888525402032171e+00  5.9719728540821304e+00  5.8011347048603108e+00  3.2799102617191322e+00  4.6090252361929789e+00  6.9949305539726989e+00  4.4853665498442590e+00  8.3444046930489737e+00  5.6799808286692643e+00  8.0891004403719204e+00  7.6133547033919662e+00  2.9689284765376187e+00  6.7705246663777343e+00  1.6101757116804336e+00  4.9821593419526927e-01  8.4029419883376661e+00  3.0159589092712196e+00  6.9270867306904629e+00  6.3007852690238864e-01  7.4608207088540466e+00  5.7762973315617980e+00  6.5337932424011580e+00  6.0926598692531719e+00  3.0412769857935182e+00  6.0994440088110489e+00  4.6032182244664464e+00  5.2251146209608645e+00  1.7581709088319275e+00  1.5988160663715725e+00  7.9566989280685494e+00  7.5434415991640540e+00  2.5784550964356385e+00  2.2088615083492695e+00  6.7390751564772255e+00  6.4195029562524040e+00  3.7794634889791467e+00  1.5078125059368679e+00  1.2989599492136144e+00  3.6298708052813300e+00  6.0667400474852435e+00  7.5680513194542929e+00  7.4824512043978384e+00  9.0844941835504684e+00  9.6085630800828259e+00  3.0484882458828197e+00  9.0974904345920162e+00  9.5446894277728926e+00  8.7590843419641242e+00  8.8733328995153382e+00  4.8988469665391332e-01  5.5675433665644447e-01  1.2855108994225035e+00  4.3845206024540779e+00  1.1940969003355220e+00  6.1176255223572440e-01  5.4262569211912082e-01  1.0388487098274044e+00  1.0282156656393684e+00  9.5520477253996958e+00  4.1006610877589100e+00  2.4671817069820947e+00  7.3461959757782269e+00  5.1944868636278931e+00  5.6848230563733484e+00  4.7313542474049415e+00  1.3784490789906367e+00  7.0533871659692542e+00  6.1597301988891981e+00  3.5639677260720002e+00  3.8752230312020837e+00  4.6948238257503483e-01  8.1532153380875059e+00  9.5629110726531987e+00  9.6104783113706826e+00  9.4795049189465228e+00  2.7659339153042026e+00  3.0874046748485982e+00  2.3904788835569879e+00  6.7207088148269607e+00  8.9340206335510501e+00  3.8837704075847199e+00  7.0879525376492936e+00  6.6887405781973293e+00  4.7690579652393952e+00  7.7665707724752231e+00  4.6708292939059008e+00  2.2005936235161663e+00  8.8869815599617006e+00  3.9649012765645595e+00  9.0796784173748932e+00  1.0271634728706962e+00  9.6116135265697693e+00  4.0080034029459938e-01  2.8484490848718793e+00  8.6100698606047601e+00  8.3213003756936441e+00  8.2669757738952310e+00  5.2641147270827329e+00  1.2648380862499427e+00  3.9086087208858761e-01  9.1706444014833490e+00  9.7279816317441519e+00  3.9899158210181134e+00  7.0488633516983858e+00  8.0044511543904928e+00  7.6077034413012843e+00  9.7278826738512123e+00  9.2159001884349205e+00  6.9212181108577582e+00  6.1984577529718923e+00  3.2811599616516158e+00  1.4477571357524022e+00  1.2377238477986299e+00  1.9797850272349626e+00  9.7276683977637681e+00  3.7460287804593650e-01  3.7502522790434717e-01  9.7279787524300900e+00  9.7266932458159161e+00  5.8794730514841884e+00  4.8142920432201858e-01  9.7263773719957154e+00  8.7831221435507878e+00  8.2405246583454677e+00  6.1237850450547384e+00  6.4712335753814267e+00  8.6882433475451570e+00  7.3768106350169687e+00  7.1770298397572292e+00  5.5831806161411439e+00  5.9870768121772082e+00  3.9087973480166288e-01  1.8596777463764202e+00  8.7548719058845830e+00  4.3090692032772733e+00  4.8157134668728085e+00  3.0752035605979597e+00  5.5487265806221258e+00  6.4736131157758017e+00  2.8920253214312028e+00  4.1001529308387576e+00  3.6243231473507049e+00  4.4460803357150320e+00  8.2215116224591274e+00  7.6237875323000859e+00  9.2561219031952184e+00  5.6035412349302032e+00  2.8586677457484946e+00  1.1460574436482232e+00  4.0525451806020154e+00  8.8804330461936338e+00  9.3173448116134203e+00  4.9818570124718503e-01  4.4248505819853212e-01  8.1684063275712102e+00  8.7264823224098027e+00  4.4667987270174292e+00  8.6731311486908904e+00  4.9436022078739104e+00  6.8227385279733346e+00  8.0765049515955152e+00  3.3163245727835498e+00  2.6410991550572720e+00  5.3443326791791561e+00  5.5218436265448636e+00  5.2529208083794172e+00  6.2599008893414227e+00  2.6290721813370737e+00  2.1144668817491432e+00  2.3171133382570330e+00  2.1487443135020214e+00  2.6765925858833093e+00  2.5768669230502734e+00  5.1998981670608941e+00  5.5598748907114190e+00  4.6304844455232725e+00  7.8902596384745260e+00  6.7852786747354372e+00  1.9868106319916241e+00  2.6427869672655153e+00  8.9428935186083240e+00  4.8909873948686160e+00  7.4998362690009932e+00  8.0684094093141354e+00  7.5985983327051345e+00  3.2812158572038532e+00  6.5987515165316077e+00  4.0348822366583912e+00  4.0594316014716227e+00  6.3283392982607296e+00  5.6153148469461982e+00  6.1564815846717496e+00  6.5582516392082688e+00  5.1779367367710361e+00  3.6421054286995695e+00  3.4541883544189078e+00  9.2492069911900945e+00  9.7373000315317082e+00  7.0688601278259018e+00  5.2617181233165577e-01  4.8216446528954551e+00  7.6778844314291357e+00  3.9065125624769328e+00  9.2759982931998888e+00  3.3335839244642074e+00  6.9924980562440107e+00  4.4287063675693128e+00  3.2260207167194910e+00  9.7047318669864726e+00  6.1623309919054792e-01  6.2891993399603390e+00  8.4206749347699450e+00  9.4934978738659694e+00  3.7378070701791255e-01  9.1113844375055653e+00  4.6259104062264145e+00  3.8537413389179855e+00  1.8992392253020589e+00  4.7094718921042233e-01  6.8303295007200919e+00  1.2392998895064986e+00  1.9883667159507692e+00  2.0264821544649894e+00  5.7437697892249586e+00  5.7519975332161959e+00  8.6883638296408652e+00  8.5813903796838620e+00  6.7632767184715838e+00  1.0000000000000000e+01  3.3545172134359404e+00  1.1355986893134526e+00  8.0964714603062014e+00  4.1194434304551084e+00  3.6226334669427041e+00  5.2274465628372564e+00  2.1768129556594538e+00  1.8542565516507412e+00  8.2121568212781657e+00  8.8278704720780770e+00  2.7112000576963546e+00  2.6051788268787002e+00  7.0489517892858355e+00  3.5409110027954096e+00  6.3614155805348105e+00  3.3776251784369702e+00  4.8503467164060972e+00  4.5244144045301633e+00  5.1932967373659062e+00  1.0000000000000000e+01  9.4236533189632148e+00  8.0201764542341376e+00  7.7150147966485099e+00  8.7174280427840534e-01  8.7014140068780730e+00  8.2627052286573459e+00  6.9606454784307967e+00  5.4414985675892993e+00  1.8543945435322140e+00  9.7234570699071341e+00  4.7163638077256653e+00  4.3368857274146269e+00  1.6777321335848532e+00  1.1080079429812393e+00  7.6436868805492368e+00  8.3912241050579741e+00  4.5590340313965880e+00  5.7461239030903855e+00  6.3601054837307496e+00  6.4155997730546188e+00  6.1472995508222432e+00  2.1832818987209150e+00  8.2441495583479441e+00  0.0000000000000000e+00  2.0363446547407866e+00  2.4536604906548609e+00  5.0418371818119789e+00  3.3528776107777030e+00  3.8761819998921565e+00  9.3239161997709950e+00  7.4893997868547126e+00  7.7055064864242038e+00  5.1655693225050987e+00  4.2292055134783829e-01  8.6673734437257117e+00  4.9411004873235109e+00  5.4610002797431356e+00  5.4876094749680782e+00  1.0000000000000000e+01  8.5340927085227953e+00  8.1871015210885467e+00  8.6044878461489365e+00  3.7381142398880507e+00  9.7391171429057479e+00  9.3469743658078563e+00  9.6961544037657443e+00  0.0000000000000000e+00  9.7391293966648682e+00  4.9795030045890929e+00  1.4316480170166614e+00  1.8515483901130128e+00  7.0763278621662913e+00  7.0954554842911941e+00  7.3111537693800157e+00  7.2344286822503250e+00  9.7109317996991340e+00  9.2298944261702989e+00  6.4152734061494847e+00  6.0148970283664642e+00  9.3049907391281406e-01  4.4309424972313520e+00  5.9363552821937491e+00  4.2175272959375150e+00  3.0336942594580445e+00  1.3472505215295862e+00  1.9425734670291359e+00  1.3032781309326875e+00  3.9217195820333872e+00  8.6962734708220388e+00  2.2820908749145916e+00  7.4872987804336688e+00  0.0000000000000000e+00  2.6861419873250272e+00  9.7186434396645378e+00  7.3566433201387538e-01  7.2667948860944493e+00  5.8336009459909368e+00  3.6677901815653611e+00  6.5900853221933939e+00  5.8519585973722164e+00  5.2769106103900461e+00  5.5728876156291864e+00  7.6710836067642880e+00  9.7267428387888906e+00  1.1770832911924327e+00  9.1819571007461249e+00  5.9146132638185387e+00  9.7332756581999096e+00  6.3003182789588124e+00  7.2048236509810621e+00  5.5978605777115424e+00  2.5356407218014718e+00  5.1219879406241002e+00  1.0000000000000000e+01  5.9494239379648661e+00  1.3244520764360310e+00  6.9949496618060447e+00  1.6553125437736407e+00  4.9420795479747666e+00  9.1748277326741370e+00  7.8836246976822881e+00  1.4745865095228472e+00  1.3526556816533402e+00  3.8395749667591232e+00  1.1105777846538647e+00  2.5199998421581702e+00  2.9475485995114212e+00  2.7188856739804286e+00  3.2238211107366999e+00  3.1041936803097134e+00  9.7266853599702365e+00  1.0000000000000000e+01  1.6363297520539846e+00  5.9610150256841701e+00  8.4278951738582215e+00  7.7972444241420940e+00  7.5399353675600125e+00  8.0563464585243629e+00  9.3688428751836650e+00  4.6263923334508261e+00  8.9810648334260641e+00  4.3538008818245055e+00  4.6149166758003863e+00  6.7716572765872671e+00  9.2741442391778524e+00  6.2426098250842097e+00  3.6809677082691383e+00  8.5765166304490013e+00  4.9263948126516270e+00  6.3898945999751380e+00  8.6088219540936706e+00  8.4937737279071204e+00  5.8797793081518348e+00  0.0000000000000000e+00  9.2891320161414566e+00  0.0000000000000000e+00  8.4087493951883534e+00  5.2649906399663369e+00  3.2882451257860530e+00  3.3129751647449663e+00  3.3602873622782248e+00  7.2369049382892401e+00  4.8782893813987922e+00  8.1533110109915921e+00  1.5523547948225109e+00  4.5071590509170134e+00  8.7927544477370674e+00  7.9548121803895206e+00  1.6103343623837760e+00  4.8915379862627306e+00  4.9435621934882947e+00  5.8299717193335727e+00  9.0809031177246364e+00  8.2143411489782352e+00  7.3321133411101762e+00  6.8506797995931832e+00  8.7417719544397805e+00  9.4666838876686779e+00  9.7388897203998415e+00  7.8785200390195671e+00  8.9589922764776919e-01  5.5749573513741622e+00  4.1050449007971429e-01  6.1768601754896642e+00  9.7389029328506052e+00  1.0000000000000000e+01  1.0000000000000000e+01  9.2158902655633081e+00  3.9649898293732124e+00  8.6883794704275665e+00  0.0000000000000000e+00  3.7374406704585317e-01  5.8796619930269820e+00  0.0000000000000000e+00  1.0000000000000000e+01  3.2813886449089695e+00  9.2159242351514123e+00  1.0000000000000000e+01  7.6079686536109818e+00  7.0491167967148867e+00  1.0000000000000000e+01  1.0000000000000000e+01  1.0000000000000000e+01  0.0000000000000000e+00  0.0000000000000000e+00  0.0000000000000000e+00  5.2641495627764749e+00  0.0000000000000000e+00  3.9652436229403194e+00  8.1533058584032361e+00  0.0000000000000000e+00  1.1183440948933145e+00  1.1184187449113390e+00  0.0000000000000000e+00  2.5766893284753851e+00  6.4739004116398986e+00  0.0000000000000000e+00  7.6078340147431174e+00  1.0000000000000000e+01  1.0000000000000000e+01  9.7391236960801812e+00  0.0000000000000000e+00  6.4739256990091789e+00  0.0000000000000000e+00  5.2639458300221031e+00  1.0000000000000000e+01  1.0000000000000000e+01  2.7496606763682232e+00  7.9588139399601738e+00  3.2473991776639327e-01  6.7124516323180110e+00  6.3784720945753559e+00  8.3248144944125535e+00  4.4593715999979802e+00  2.5901649524114552e+00  2.8629843795232293e+00  2.3254697039400827e+00  9.1713506792007227e+00  2.0363426536440912e+00  3.5240216327872192e-01  1.7403652733765846e+00  8.8197267726020208e+00  7.5747523465101985e-01  9.4300000144460905e-01  3.6760311051396843e-01  7.6279856749111019e-01  5.6039089785741714e-01  8.3972829631886392e-01  7.8103164327821983e-01  9.1972651981681324e+00  8.9091801647621693e+00  2.7387027281411451e+00  6.2083152820239267e+00  9.7119028585872638e+00  1.0991344727489387e+00  6.9269412507154087e+00  4.8013110921660367e+00  1.6517076732929421e+00  4.4915131951602936e+00  3.3807536328692240e+00  4.1359352368907594e+00  8.0291150691336597e+00  9.3278823573372804e+00  2.5170347285485102e+00  9.0423042793767578e+00  8.8054273371663268e+00  7.2294798283290618e+00  3.9912154916628206e+00  5.3877925858669391e+00  7.4515086328759992e+00  3.0879656706746039e+00  5.9698531105096437e+00  9.1724388262667507e+00  3.3576320481090316e+00  6.7901470313901671e+00  8.5428514608349584e+00  8.0999029312160609e+00  8.4938983791310374e+00  3.6016820686102957e-01  3.0605824546344818e+00  2.7232607626437808e+00  2.3978376248058009e+00  1.5807044502155656e+00  1.9922074943628620e+00  4.6949565493649974e+00  5.8038537161886614e+00  5.4503426698368518e+00  8.1312144611216421e+00  9.4805983824666136e+00  9.2939093979774885e+00  7.8498395477375311e+00  7.6986628943708872e+00  4.5363871354517933e+00  5.8327875339775774e+00  1.4482227170909827e+00  1.6682879030056430e+00  2.1986030258862286e+00  1.9779611725382993e+00  2.3687009815036908e+00  2.2513727559294887e+00  2.0597477822411854e+00  6.8953199560047862e+00  6.8238584988194146e+00  4.4247925488320190e+00  6.4457474270962702e+00  9.1432413887739052e+00  3.8974344246488712e+00  3.4120410531568801e+00  9.7677832238269460e+00  8.8160887031204407e+00  8.9684918237727445e+00  6.0070218205370862e+00  1.0909681433821392e+00  6.9580456430632918e+00  5.4246507931774124e+00  3.8454054435648866e+00  7.4336428109848480e+00  8.1748001189039687e+00  2.0938954103221405e+00  8.6744517119419591e+00  8.4648732028187545e+00  8.1234060211178836e+00  9.7291053640375953e+00  8.9592660484105124e+00  9.0521210712566162e+00  9.3041810737420771e+00  8.7207727479144133e+00  3.6080454421515866e+00  1.3610011582054542e+00  1.9743306590609138e+00  9.7377225335688582e+00  3.7114201981198720e+00  1.9894707653197947e+00  6.9885660333988220e+00  7.4777495076975278e+00  5.0416321812209004e+00  4.1880583654696366e+00  5.3451575271283396e+00  2.6431158135597022e+00  2.7931233942535001e+00  2.5555276303726631e+00  2.9819988164504091e-01  3.5368256569771814e+00  8.4864396333127061e+00  8.1716553847878117e+00  1.7069258136138252e+00  9.3567516978832028e+00  8.2145183433511288e+00  8.7341549250562718e+00  7.7574454946102085e+00  6.7749986108442002e+00  2.0335162865821985e+00  1.7458275069402931e+00  1.3873455652985829e+00  1.4898022426375042e+00  6.4745056972915460e+00  8.08083