<?xml version="1.0"?>
<VTKFile type="UnstructuredGrid"  version="0.1"  >
<UnstructuredGrid>
<Piece  NumberOfPoints="2513" NumberOfCells="4852">
<Points>
<DataArray  type="Float64"  NumberOfComponents="3"  format="ascii">-1 1 0  -1 -1 0  1 -1 0  1 1 0  0 -1 0  1 0 0  0 1 0  -1 0 0  0 0 0  -1 -0.5 0  -0.5 -1 0  -0.5 1 0  -1 0.5 0  1 -0.5 0  0.5 -1 0  1 0.5 0  0.5 1 0  0.4166666666666666 -0.4166666666666667 0  -0.4166666666666667 0.4166666666666667 0  -0.25 -0.5 0  0.5 0.25 0  -0.4861111111111112 -0.06944444444444445 0  0.0732758620689655 0.507183908045977 0  -0.625 -0.625 0  0.625 0.625 0  0.7380952380952381 -0.25 0  -0.7099116161616161 0.2105429292929293 0  -0.25 0.7380952380952381 0  0.105392156862745 -0.6348039215686275 0  0.6770833333333334 -0.6770833333333333 0  -0.6770833333333334 0.6770833333333334 0  0.3472222222222222 -0.06944444444444446 0  -0.7264957264957265 -0.3044871794871795 0  0.3141940982507127 0.7297313660835709 0  0.02049587951122483 -0.3227479397556124 0  -0.2690972222222223 0.1475694444444444 0  0.3859500089908372 -0.7274430156831472 0  -0.2228477945123298 -0.1761765495248019 0  0.2182539682539683 0.1884920634920635 0  0.75 0.375 0  -0.145442219440968 -0.7602211097204841 0  0.7088913690476191 0.0427827380952381 0  -0.75 -1 0  -1 -0.75 0  1 0.75 0  0.75 1 0  -0.7439982703698937 -0.04614153195464455 0  -0.4609235096577606 -0.3356498099556895 0  0.4063134471431929 0.4895621842856023 0  0.25 -1 0  -0.25 -1 0  -0.75 1 0  0.75 -1 0  -1 -0.25 0  -1 0.25 0  1 -0.25 0  -0.25 1 0  1 -0.75 0  -1 0.75 0  0.25 1 0  1 0.25 0  -0.4041423272138783 -0.7597141090712928 0  0.06500839607911253 0.7578103030529481 0  -0.1572801182352047 0.3838997021864289 0  -0.6528005242053915 0.4409494757946086 0  -0.4930160984848485 0.1544744318181818 0  -0.4732142857142858 0.7752976190476191 0  0.6398809523809523 -0.4538690476190476 0  0.5166054117396399 -0.2161233620965164 0  -0.002273787244753427 0.2232363985975174 0  0.1500564496765022 -0.1524955293952667 0  0.2016720420046758 -0.4410343282803009 0  -0.08495178036419618 0.6274139771124571 0  -0.8367311471133162 0.3642591720794645 0  -0.8333333333333334 -0.625 0  -0.594323836800685 -0.8231079456002283 0  -0.4466957714776065 -0.5349126855671806 0  0.8125 0.5625 0  0.78125 0.78125 0  0.5091392650016769 0.7947130883338923 0  0.125 -0.8382681931833136 0  -0.8184523809523809 -0.8184523809523809 0  -0.07781530426104531 -0.5819319697006881 0  0.5085055196703295 0.04967610411902112 0  0.2918471072074933 -0.276017202318847 0  0.5120763537765269 -0.5898771553229597 0  0.625 -0.8585349462365591 0  0.8158532234335381 -0.8158532234335381 0  -0.5198088446315396 0.5739411553684605 0  -0.8585349462365591 0.625 0  -0.8150493805516597 0.8156205699829586 0  0.8585349462365591 -0.625 0  -0.2688268348649726 0.5439331383603209 0  0.8242100426758139 -0.4436043596336612 0  0.5833756314287952 0.4479378157143976 0  0.8690476190476191 -0.125 0  -0.125 0.8690476190476191 0  -0.8692745600729823 0.125 0  0.8696725120759167 0.125 0  -0.625 0.8711516477451908 0  0.2339522463269718 0.3879558377955778 0  0.2453709502295031 0.5655822922838026 0  0.1730610651637797 0.02021709580868947 0  0.3245402594056757 -0.5644672020485209 0  -0.7291666666666666 -0.4816595441595442 0  -1 -0.375 0  -0.5811140848639904 -0.2127276307675001 0  0.673332592838314 0.2158348143233718 0  0.375 1 0  -0.5714768890989919 0.2985103444040069 0  -1 -0.125 0  -0.8453692574786325 -0.1875 0  -0.3144549134065865 -0.02408675326008025 0  -0.2898414972096258 -0.3336092734780093 0  -0.1075052092206287 -0.4224330421314983 0  -0.05043970703604117 -0.1652278959397459 0  0.6459672950297897 -0.1113415301525317 0  0.4645210271029513 0.6398480556579343 0  0.3512863754411909 0.0937979496253573 0  -0.6063160985568274 0.03891469652249891 0  -0.3428819444444445 0.8690476190476191 0  0.625 1 0  -0.1602164796159982 0.02697860906625157 0  0.04648110064133829 -0.4808416424239687 0  1 0.875 0  -0.3836102479201657 0.6484936449177356 0  -0.3776011723096096 0.263078478984336 0  -0.6024978259969829 -0.3949628096211138 0  0.125 1 0  0.2010781308272777 0.8456221018461906 0  0.2822509696388829 -0.845902544691141 0  -0.3285533674953515 -0.6289773550938936 0  0.3461306793221754 0.278777492464833 0  0.4737475672408696 -0.8508448959534423 0  0.2384632828836344 -0.7029523187242811 0  -0.004777287059791593 0.3759269695907358 0  -0.8499735021850066 -0.3912320205328522 0  0.1222536293721587 0.2963971539625205 0  -0.3769456520999688 -0.203572526805711 0  -0.2749617205755651 -0.8464290792698902 0  0.004805888512766143 -0.747174355248311 0  -0.125 -1 0  -0.06001061822252458 -0.8724007765244854 0  0.875 0.4375 0  0.854421179608893 0.271342359217786 0  0.875 1 0  -0.1499861095763589 0.2358309656934888 0  0.3381943639137225 0.8663061796405532 0  -0.7853090110442228 0.4998412775277108 0  0.7398165998560814 -0.5535192694951373 0  0.1580042122341573 -0.3100246140259917 0  -0.7291666666666667 -0.7142857142857142 0  -0.375 -1 0  0.6483368386154684 0.8514905990110488 0  -0.1295370103291928 -0.2826118305021242 0  0.07458201853700455 0.1123894386563915 0  0.6146465857036327 -0.3161203659316075 0  0.5551898493894731 -0.740296118159085 0  0.375 -1 0  0.482702798370208 -0.084133350091034 0  0.87890625 0.68359375 0  -0.05917195534525846 0.4971092425697621 0  0.1260710309213975 0.6343750312956699 0  0.8690476190476191 -0.3077066815262848 0  -0.2912010232560567 0.3668168386732139 0  -0.875 1 0  -1 0.875 0  1 -0.875 0  0.875 -1 0  -0.8689564281364567 -0.006189266075306407 0  -0.7449425635110547 0.08458938160051771 0  -0.7150266761936593 -0.1739444581417552 0  -0.5260034831318311 -0.711099823962112 0  -0.4724626808827322 -0.871722230709409 0  0.4734436795977052 0.377714794132168 0  -0.875 -1 0  -1 -0.875 0  0.6927189078571988 0.5156567235715964 0  -0.3742497615796874 -0.4296005251260107 0  -0.1969436423297711 -0.6387157229772615 0  -0.6179496409766825 -0.08933356056510935 0  -0.424405057115988 0.04452428810878029 0  -0.08479048335844169 0.1279607007132633 0  0.003830300099055113 0.8712085230656206 0  0.8748778838820267 -1.379218479898026e-05 0  -0.375 1 0  -0.625 1 0  1 0.125 0  -0.125 1 0  1 -0.375 0  1 -0.125 0  1 -0.625 0  0.625 -1 0  0.125 -1 0  -0.625 -1 0  -1 -0.625 0  -1 0.125 0  -1 0.375 0  -1 0.625 0  1 0.375 0  1 0.625 0  0.6325660748712082 0.3335187599557389 0  -0.06420945895056573 0.7549874027425891 0  -0.8769015540914771 0.2478802253893416 0  0.871875 0.871875 0  -0.6868091492840067 0.3270978624973681 0  -0.5363597469565949 0.412994850055505 0  -0.6803734992638302 0.5574295000651103 0  -0.7076253581162534 -0.8803439094224437 0  -0.8778089002295137 -0.5106896447504627 0  -0.3860184984222981 0.530566778071246 0  0.6109900617121508 0.1128453077697081 0  0.3896945134930274 -0.1915382873255086 0  0.7605656944697778 -0.06822134873122943 0  0.3576151269893478 0.5948388411612135 0  -0.5689902680792265 -0.5143596830118065 0  0.6262446286847614 -0.5735657901943212 0  0.2030558252325225 -0.5625263842513452 0  0.6123273142928579 0.7407533260723429 0  0.4016460890123554 -0.3042863223111857 0  -0.59039693199147 0.7578418819188018 0  0.7276932493917544 -0.3705808024528924 0  0.5222536818742854 -0.4713886230400014 0  -0.5101986527137737 0.8848365765607674 0  0.510560172809238 0.5356013299918891 0  -0.3603569195756083 0.75823710606415 0  0.1967279277813232 0.728226870058472 0  -0.6086880986371127 0.1545624071548516 0  -0.38105366729386 0.1511189987807864 0  -0.2944659463671584 -0.7359061804869591 0  0.5060729154966499 -0.3475227845833823 0  -0.09281616240412746 -0.06197858250969457 0  0.7649739583333334 0.6673177083333334 0  0.7628906249999999 0.890234375 0  -0.2666864184909611 0.2585504071132311 0  0.3635064892129658 0.3878003602709461 0  -0.2339409722222222 0.8901937905844155 0  -0.1718792125974916 -0.8957733325456778 0  0.1001768566329531 0.4023510017391879 0  0.3120260172693757 -0.4540546875576884 0  0.7804062804433681 0.1896628610854537 0  0.4087715451998049 0.187961780041608 0  -0.1584963477271457 0.5451611892421655 0  -0.8926817849258324 0.463022006336401 0  0.2338091473445219 -0.07576267331277289 0  0.08171112182813692 -0.2349087687359925 0  0.04635385178956847 -0.1044635073718474 0  -0.4377391632114205 -0.6448874471423088 0  -0.1907678351227189 0.6480215912813945 0  0.300605946475244 0.4741444604171038 0  -0.2145033720757486 -0.06751709909419711 0  0.6069191921170397 -0.005492331448357812 0  0.0214718770761248 0.6032397936031719 0  0.5476675683364878 0.8992752415326501 0  0.4387475014316537 0.9093708953002239 0  -0.4932997685306436 -0.4381009159993523 0  0.2515197695339056 -0.1791673369138964 0  -0.7291666666666667 -0.6088789682539681 0  -0.9166666666666667 -0.6875 0  0.620579540363709 -0.2122431523583302 0  -0.484950136419973 0.6719440339397442 0  0.2857044415400258 0.0137589173127316 0  -0.8945708364098356 -0.288306105327986 0  0.4043102720140535 0.7842914560451557 0  0.04123256238752064 -0.9026968245801402 0  0.2003676884403109 -0.9091888601740487 0  0.1068775558538842 -0.7373377130403223 0  -0.4804566783514427 -0.1763307203045643 0  0.108286342087769 -0.3993789328997278 0  -0.191883080105361 -0.3640821726430649 0  -0.07025064492006244 0.2984876656890053 0  -0.7039324641409584 0.788312126296613 0  -0.7311286585775438 0.8932502354831682 0  0.5171409396884947 0.1503852691889257 0  0.4229392823658633 -0.003216522184234835 0  -0.5621736087218259 -0.919558629836806 0  -0.626474064879544 -0.7266572613636506 0  0.2446828746617422 0.2867616783302419 0  0.1759429608742923 0.4776611759306416 0  -0.3468240303741654 -0.5260416435617549 0  -0.7465808808425306 0.4069574477998361 0  -0.7819962170660292 0.2802441065650652 0  -0.3742623214119594 -0.8547800509641984 0  0.1014498009713561 0.8506721983266377 0  0.4285217620918213 -0.5230190595570253 0  0.4091738370487775 -0.6256346204225141 0  0.78125 0.46875 0  0.90625 0.53125 0  -0.4791801348852565 0.2553992655702126 0  0.7843318610782772 -0.7086046956885941 0  0.8909728264971901 -0.7355183796514634 0  0.7041908166528879 -0.7830649143180282 0  0.7311821352
[...]
<PointData  Scalars="velocity-2"> 
<DataArray  type="Float64"  Name="velocity-2"  format="ascii">0.0000000000000000e+00  0.0000000000000000e+00  1.0000000000000000e+01  1.0000000000000000e+01  5.2780350363313069e+00  1.0000000000000000e+01  5.2780578101340936e+00  0.0000000000000000e+00  5.2779397212778161e+00  0.0000000000000000e+00  2.6676668762781062e+00  2.6677361731098852e+00  0.0000000000000000e+00  1.0000000000000000e+01  7.7230130755601882e+00  1.0000000000000000e+01  7.7229540317048908e+00  7.3294123412012562e+00  3.1094967979916643e+00  3.9868230827671063e+00  7.7228298765701933e+00  2.7413988215464373e+00  5.6487477087552387e+00  2.0026222875229127e+00  8.3035145205060754e+00  8.8205939842671928e+00  1.5496531961299875e+00  3.9868478605394624e+00  5.8100086161554945e+00  8.5425024272852941e+00  1.7248744689793019e+00  6.9974335149635127e+00  1.4612478158691053e+00  6.8380446876153780e+00  5.3821339362309661e+00  3.8869054337727564e+00  7.1831156650462651e+00  4.1287100949930764e+00  6.3701539919867578e+00  8.8746973252138677e+00  4.5311054458006508e+00  8.6877176780040575e+00  1.3356887416036169e+00  0.0000000000000000e+00  1.0000000000000000e+01  8.8747122448057656e+00  1.3677264922913441e+00  2.8751274640003737e+00  7.2801538329915223e+00  6.5259796195967787e+00  3.9869282013352474e+00  1.3356537443260397e+00  8.8747871668018803e+00  0.0000000000000000e+00  0.0000000000000000e+00  1.0000000000000000e+01  3.9868113185156795e+00  1.0000000000000000e+01  0.0000000000000000e+00  6.5259138255162039e+00  1.0000000000000000e+01  3.1757611542861515e+00  5.6071742408396119e+00  4.4698975494303701e+00  1.8543487265229464e+00  2.7047664596410219e+00  2.8098265879150346e+00  8.3720413945547332e+00  7.8006001666173939e+00  5.2664067058211348e+00  6.0329891839711225e+00  6.2885700295342168e+00  4.8434011995280617e+00  8.7247195977256209e-01  8.9066441020107578e-01  2.1660268058304992e+00  2.9505250341407727e+00  9.1575326020737897e+00  9.0162704509622387e+00  7.7657453659457270e+00  5.9080795627138203e+00  9.7014300933900877e-01  4.8801219948746519e+00  7.7627990119494674e+00  6.7297214357229720e+00  7.7794567978532880e+00  8.3034722115043014e+00  9.1726884143957399e+00  2.5624710624992564e+00  7.5597519195022000e-01  9.8828690416188358e-01  9.3650118556623578e+00  3.8883466716767607e+00  9.2104084653529963e+00  8.1113048051803567e+00  9.4123184672717919e+00  4.6369478054931870e+00  6.9858984936993518e-01  9.4151474264788053e+00  2.0025321081457119e+00  6.4472332720237846e+00  6.5032416717060180e+00  6.1470910518873110e+00  6.8881063645805547e+00  1.4469000422518601e+00  0.0000000000000000e+00  2.2364126336879964e+00  8.5253459453717184e+00  7.1308452301324348e+00  2.2876051762877370e+00  0.0000000000000000e+00  8.2633389816106184e-01  3.6486872240326282e+00  3.7782030462233678e+00  4.7273778319614177e+00  5.0205771862260891e+00  8.3998738515436795e+00  7.5559839389161807e+00  7.0169378823251849e+00  2.1021527941965132e+00  3.4991010055387468e+00  8.3035542585771118e+00  4.4546532155646510e+00  5.5136403187744438e+00  1.0000000000000000e+01  3.2842614107051746e+00  3.3159499997908655e+00  2.1224575271678572e+00  5.9082355044664112e+00  6.2855522016672696e+00  6.6831839095092507e+00  3.5746330917444702e+00  6.9920950327756426e+00  7.5994862785477801e+00  6.4693357609386251e+00  5.2537211590057540e+00  8.0171955426791497e-01  5.8943101857501707e+00  3.3194338770274570e+00  3.8560674877944483e+00  5.3025297712234121e+00  4.6369680106396851e+00  4.9714518759549540e+00  9.4391046792074764e+00  9.3465057749166220e+00  9.4390834067330935e+00  4.5076633915637556e+00  6.9539237615378875e+00  1.1472136329579663e+00  8.8284038672804073e+00  6.0723845762738931e+00  1.4469677848763165e+00  3.3298000730371915e+00  8.4107925573775653e+00  4.6135187059129077e+00  5.6552697496235744e+00  8.2558733875153489e+00  7.9805789116798715e+00  7.1308205012209784e+00  7.6416595614245013e+00  9.4566439844330326e+00  4.9757318946627418e+00  5.9134636950785913e+00  9.4123414308861708e+00  3.7709550715187801e+00  6.6799384528300176e-01  0.0000000000000000e+00  1.0000000000000000e+01  9.4391177085343436e+00  7.0028841404848508e-01  1.3626507503768912e+00  1.5224028951970834e+00  2.5295600975821411e+00  2.8138179249963238e+00  7.5980503103232762e+00  6.6801049536824353e-01  0.0000000000000000e+00  8.6139512316488052e+00  3.3336526249200853e+00  4.2638230313189887e+00  2.0401405140583724e+00  3.0685924509559652e+00  4.8442591356053226e+00  5.2974738416286202e+00  9.4385509187859480e+00  3.3297982284488032e+00  2.0025239267325237e+00  1.0000000000000000e+01  4.6369486441089114e+00  1.0000000000000000e+01  1.0000000000000000e+01  1.0000000000000000e+01  8.3035513736748001e+00  5.9082463872893332e+00  2.0025928816935346e+00  0.0000000000000000e+00  0.0000000000000000e+00  0.0000000000000000e+00  0.0000000000000000e+00  1.0000000000000000e+01  1.0000000000000000e+01  8.3383191450366461e+00  4.9499813028235513e+00  6.5781048110802032e-01  9.4250593582058428e+00  1.6729727697793964e+00  2.4745303556908183e+00  1.7073138015854394e+00  1.5619278936293197e+00  6.5299478299301017e-01  3.2716019357406645e+00  8.2389014006255703e+00  7.2009301844581808e+00  8.9226040511657541e+00  7.0472554287534743e+00  2.3009275422334863e+00  8.3092547732356650e+00  6.2953810084660820e+00  8.2450708681213847e+00  7.2579880226816673e+00  2.1869211789355507e+00  8.7733301502717538e+00  7.8269733555708756e+00  2.6135736179684126e+00  7.7723112516066823e+00  3.4070014750709925e+00  6.2640630898249681e+00  2.0895135169719126e+00  3.2977239861683625e+00  3.7538133270768288e+00  7.7513770638766673e+00  4.8028740142610058e+00  8.9425744188310201e+00  8.9331236602483024e+00  3.8994531454125401e+00  7.0755414500137661e+00  4.0707879281054034e+00  4.3939742043091412e+00  5.7838653738410875e+00  6.8275785136089047e+00  9.0124855461211570e+00  7.2918740878403145e+00  4.4634917332459203e+00  5.7351262204149689e-01  6.4465715169797217e+00  5.6912108493268363e+00  5.5130279288220976e+00  2.9979466085998672e+00  4.2958669745497939e+00  6.7722651105812206e+00  4.1721389726212115e+00  8.2201384509437929e+00  5.3871214644501109e+00  7.9454995988201222e+00  7.4342054463736185e+00  2.7032360201609462e+00  6.5332344550111889e+00  1.4469866641344566e+00  4.4534497599312933e-01  8.2831789676807137e+00  2.7476375078988422e+00  6.6999588336951925e+00  5.6343939263342624e-01  7.2706557681766775e+00  5.4870502037449249e+00  6.2821398340475998e+00  5.8175551563004522e+00  2.7714187462536626e+00  5.8245238260902896e+00  4.2901490230755606e+00  4.9189195829723360e+00  1.5816028404187534e+00  1.4364238555498094e+00  7.8031159234965592e+00  7.3592592105970480e+00  2.3371412712840973e+00  1.9947935482427641e+00  6.4998763024697546e+00  6.1613246733492488e+00  3.4783765876793731e+00  1.3539567299598256e+00  1.1648449376967862e+00  3.3336288188295193e+00  5.7903166805341364e+00  7.3857322224634876e+00  7.2938426130919103e+00  9.0162801802825445e+00  9.5795211111760619e+00  2.7782160829656233e+00  9.0302497640916553e+00  9.5108768684854805e+00  8.6662595622604979e+00  8.7891845226883589e+00  4.3791081978507079e-01  4.9774098429405406e-01  1.1528048063607312e+00  4.0720892698413662e+00  1.0701953272434801e+00  5.4703328553968178e-01  4.8511272901039382e-01  9.3036530413849028e-01  9.2084263146244560e-01  9.5187933791934114e+00  3.7920043077871037e+00  2.2335032264976191e+00  7.1478911212463165e+00  4.8877920246281290e+00  5.3922320341789707e+00  4.4185988258436941e+00  1.2367720391409640e+00  6.8346979322051959e+00  5.8876929013997721e+00  3.2700013717059555e+00  3.5716788683173970e+00  4.1966490556046282e-01  8.0144537527821988e+00  9.5304761885893701e+00  9.5815757459108752e+00  9.4408596111915308e+00  2.5123434221311873e+00  2.8151604854651029e+00  2.1623941589292976e+00  6.4804097743627853e+00  8.8544571192280905e+00  3.5799654400030243e+00  6.8715706338142581e+00  6.4464435900000749e+00  4.4562690015101083e+00  7.5988199613141010e+00  4.3577136386910071e+00  1.9870270732002440e+00  8.8038673225738844e+00  3.6590352997515416e+00  9.0110963834461888e+00  9.1990588866407408e-01  9.5828137251151642e+00  3.5823845492201228e-01  2.5897283626183065e+00  8.5060372604415164e+00  8.1953402687638484e+00  8.1368662399594296e+00  4.9586757507687631e+00  1.1341110619608725e+00  3.4933611096153072e-01  9.1088940493629291e+00  9.7078074166126527e+00  3.6832973145489691e+00  6.8297569426012066e+00  7.8544877434017311e+00  7.4282814696909805e+00  9.7076972204910241e+00  9.1575658872431340e+00  6.6937011377738767e+00  5.9285771390044140e+00  2.9991346179882803e+00  1.2995355487812026e+00  1.1096193607646891e+00  1.7840593966898088e+00  9.7074742372408416e+00  3.3479243045730844e-01  3.3515884807079194e-01  9.7078070601904258e+00  9.7064226123419726e+00  5.5944070995697075e+00  4.3034792420521428e-01  9.7060738825589219e+00  8.6921988413934788e+00  8.1083476723620240e+00  5.8500500839597125e+00  6.2161586861803091e+00  8.5900828464995715e+00  7.1805897423068661e+00  6.9667750386783167e+00  5.2871941566475247e+00  5.7068838947679845e+00  3.4930801208815659e-01  1.6741944978438545e+00  8.6617911145474054e+00  3.9973775221823975e+00  4.5032946616390310e+00  2.8036019694859897e+00  5.2515852425434062e+00  6.2184428196407708e+00  2.6308291286312531e+00  3.7914511375153550e+00  3.3282289865930523e+00  4.1334359679470865e+00  8.0879831766244585e+00  7.4454295019604286e+00  9.2008103567307735e+00  5.3080621865971436e+00  2.5993576982558557e+00  1.0268822732892591e+00  3.7448666050865249e+00  8.7968268869393729e+00  9.2666161493472909e+00  4.4534977334929260e-01  3.9549676921191601e-01  8.0307670942987208e+00  8.6312325921116919e+00  4.1540002003285377e+00  8.5738599956301282e+00  4.6327375043434591e+00  6.5888073189744754e+00  7.9319899554374969e+00  3.0326911276893456e+00  2.3956336372648939e+00  5.0411356873185422e+00  5.2236833208645130e+00  4.9473680439286483e+00  5.9932304777230812e+00  2.3842247094666060e+00  1.9077312820683783e+00  2.0946286254516067e+00  1.9393312260370059e+00  2.4287019771040579e+00  2.3354225404096396e+00  4.8931738841080765e+00  5.2628245142403687e+00  4.3173080767305425e+00  7.7317473409850770e+00  6.5490005263832396e+00  1.7905768465097174e+00  2.3972316606930479e+00  8.8640146257251899e+00  4.5793597236076105e+00  7.3124254998854337e+00  7.9232764208407769e+00  7.4184738118059990e+00  2.9992617726567690e+00  6.3510107013241504e+00  3.7273671581387884e+00  3.7517147177712142e+00  6.0652083986904310e+00  5.3201703923219856e+00  5.8843532562158822e+00  6.3080267021614942e+00  4.8708662569645318e+00  3.3455855820709099e+00  3.1646345148835908e+00  9.1933614547404474e+00  9.7178088463254984e+00  6.8512274917808353e+00  4.7040393022542282e-01  4.5093855682775024e+00  7.5035135145197751e+00  3.6019819838841989e+00  9.2221498997569711e+00  3.0494810994011923e+00  6.7696009766701515e+00  4.1160168756576674e+00  2.9466309091457821e+00  9.6828294915483468e+00  5.5103725222407929e-01  6.0240074962637387e+00  8.3021982637920821e+00  9.4558879789353050e+00  3.3401032737840919e-01  9.0451916477107943e+00  4.3128925390961976e+00  3.5506395621367379e+00  1.7104431853324786e+00  4.2095871455890022e-01  6.5970322216843060e+00  1.1110246082651853e+00  1.7920808715499070e+00  1.8269654630043375e+00  5.4533732883316288e+00  5.4619422504179154e+00  8.5902316125238514e+00  8.4751202172521900e+00  6.5256102268687570e+00  1.0000000000000000e+01  3.0693677678294669e+00  1.0174711772872302e+00  7.9534336264442320e+00  3.8106713827279384e+00  3.3268373316211091e+00  4.9213944341523215e+00  1.9651976301730463e+00  1.6692036197695210e+00  8.0779189656876547e+00  8.7402594324729783e+00  2.4610264802971189e+00  2.3620662397773367e+00  6.8299407689363276e+00  3.2483029396220915e+00  6.0999993124100866e+00  3.0912345141608748e+00  4.5384047779605234e+00  4.2113229249599904e+00  4.8865127337332126e+00  1.0000000000000000e+01  9.3808162173373937e+00  7.8714461594640861e+00  7.5434183089111446e+00  7.8019305973270947e-01  8.6042768757654109e+00  8.1322769115302318e+00  6.7358361299862173e+00  5.1408599024385229e+00  1.6692540529247801e+00  9.7029373749609960e+00  4.4033437420746493e+00  4.0248169060674694e+00  1.5083028673155008e+00  9.9269568343958214e-01  7.4668082628171577e+00  8.2705669874593024e+00  4.2458187130272993e+00  5.4558497856645820e+00  6.0986751952811105e+00  6.1571894979319133e+00  5.8746492482774784e+00  1.9711145186975905e+00  8.1122902805080930e+00  0.0000000000000000e+00  1.8359128420730049e+00  2.2211030404455476e+00  4.7321750794526727e+00  3.0677671154829058e+00  3.5724075001826709e+00  9.2736357350535084e+00  7.3011530049683353e+00  7.5331471443628013e+00  4.8580485590542404e+00  3.7801249256564429e-01  8.5675928321987129e+00  4.6300083729507255e+00  5.1609427390915323e+00  5.1882555489948210e+00  1.0000000000000000e+01  8.4242038599833275e+00  8.0509707104795183e+00  8.4999941310398093e+00  3.4383230703816290e+00  9.7197720738419182e+00  9.2984393768612197e+00  9.6736245774196554e+00  0.0000000000000000e+00  9.7197858554499064e+00  4.6688965946036651e+00  1.2849642298216841e+00  1.6667944818261895e+00  6.8591794960292445e+00  6.8796033101529579e+00  7.1102284051286171e+00  7.0281153339331590e+00  9.6894909002482539e+00  9.1725860881930146e+00  6.1569270412262265e+00  5.7358241516454225e+00  8.3291270698753705e-01  4.1183913105792280e+00  5.6539964260069402e+00  3.9069760426489504e+00  2.7642920709059076e+00  1.2085602993999425e+00  1.7500276184304802e+00  1.1688179570739068e+00  3.6169856546915002e+00  8.5986997033442574e+00  2.0621865684024940e+00  7.2989760402453836e+00  0.0000000000000000e+00  2.4375125034393954e+00  9.6977740241739134e+00  6.5811540125824042e-01  7.0629428579498370e+00  5.5467582798882225e+00  3.3701377421697489e+00  6.3417620975931213e+00  5.5659697075943342e+00  4.9718939746382844e+00  5.2763786707063582e+00  7.4962611679613955e+00  9.7064740435542625e+00  1.0549391167924680e+00  9.1210469443825133e+00  5.6313744975133169e+00  9.7135032310357321e+00  6.0357084456037207e+00  6.9963738889564704e+00  5.3022362613211138e+00  2.2972227586026923e+00  4.8137528467978212e+00  1.0000000000000000e+01  5.6675054995750704e+00  1.1879985712451850e+00  6.7722665392490669e+00  1.4880225900877810e+00  4.6311152191215461e+00  9.1133919069614002e+00  7.7245714910016465e+00  1.3237688057406305e+00  1.2134146591642077e+00  3.5369029664178235e+00  9.9496119656425286e-01  2.2827289814072933e+00  2.6828871902162459e+00  2.4683243676265723e+00  2.9446101534779054e+00  2.8312064079222692e+00  9.7064149929562671e+00  1.0000000000000000e+01  1.4705983489661325e+00  5.6795685676349432e+00  8.3100003415932360e+00  7.6317393079972797e+00  7.3555326915339680e+00  7.9102747386750876e+00  9.3219149060533688e+00  4.3129734227839371e+00  8.9050721785816886e+00  4.0418209909703497e+00  4.3016967830289978e+00  6.5345408228013317e+00  9.2201441386829117e+00  5.9749073382563971e+00  3.3831042165733134e+00  8.4698651973170609e+00  4.6151375412504017e+00  6.1299948106373838e+00  8.5046410104562629e+00  8.3808743153055172e+00  5.5945899040296023e+00  0.0000000000000000e+00  9.2362574392987984e+00  0.0000000000000000e+00  8.2893675647803136e+00  4.9597953609339029e+00  3.0060209380974161e+00  3.0294649799806956e+00  3.0747672751139037e+00  7.0307933156420344e+00  4.5666737504758306e+00  8.0145675303297299e+00  1.3943049849653402e+00  4.1942651786179495e+00  8.7025022998596793e+00  7.8010331287990917e+00  1.4468955678063107e+00  4.5799502535631786e+00  4.6324359642579411e+00  5.5429222644815574e+00  9.0124372622298026e+00  8.0802231745780553e+00  7.1326666036590813e+00  6.6185674442835856e+00  8.6476729704474202e+00  9.4270705510361328e+00  9.7195231896903866e+00  7.7191343170855635e+00  8.0184801019694618e-01  5.2783648098347671e+00  3.6691904980534884e-01  5.9056150301516999e+00  9.7195282349333443e+00  1.0000000000000000e+01  1.0000000000000000e+01  9.1575153085480299e+00  3.6590355743018019e+00  8.5902536733929011e+00  0.0000000000000000e+00  3.3402403968484085e-01  5.5945978370140850e+00  0.0000000000000000e+00  1.0000000000000000e+01  2.9992315654068271e+00  9.1575536971393969e+00  1.0000000000000000e+01  7.4284358735739016e+00  6.8300305913228048e+00  1.0000000000000000e+01  1.0000000000000000e+01  1.0000000000000000e+01  0.0000000000000000e+00  0.0000000000000000e+00  0.0000000000000000e+00  4.9587547825487066e+00  0.0000000000000000e+00  3.6590457311252749e+00  8.0145507316247464e+00  0.0000000000000000e+00  1.0018936887644525e+00  1.0019020760992001e+00  0.0000000000000000e+00  2.3354631677620818e+00  6.2186752230454081e+00  0.0000000000000000e+00  7.4283529370146137e+00  1.0000000000000000e+01  1.0000000000000000e+01  9.7197764275741640e+00  0.0000000000000000e+00  6.2186847526766762e+00  0.0000000000000000e+00  4.9586225212880359e+00  1.0000000000000000e+01  1.0000000000000000e+01  2.4969904321222463e+00  7.8053706214020941e+00  2.9019494131196666e-01  6.4716444963939317e+00  6.1179499970704292e+00  8.1991158533742841e+00  4.1465251917325894e+00  2.3480606297100186e+00  2.6033495150833730e+00  2.1023205821818696e+00  9.1096497550605520e+00  1.8359962524715061e+00  3.1491950952330805e-01  1.5652925190586227e+00  8.7315195170895006e+00  6.7764152654762144e-01  8.4414105349678192e-01  3.2850922357595530e-01  6.8234280957485627e-01  5.0102995081470469e-01  7.5142568937932575e-01  6.9881169142362687e-01  9.1375077871106942e+00  8.8277661757765475e+00  2.4868046951223635e+00  5.9388466113886942e+00  9.6905319705337796e+00  9.8466243717372093e-01  6.6997164515787269e+00  4.4890611753094873e+00  1.4846395270218544e+00  4.1785252994304036e+00  3.0943682876908101e+00  3.8265485469238176e+00  7.8810103745269071e+00  9.2779126036896002e+00  2.2799188543452451e+00  8.9709180106212720e+00  8.7161754050001292e+00  7.0227775485691879e+00  3.6847503243269277e+00  5.0854576975199928e+00  7.2605860511946307e+00  2.8157368985988214e+00  5.6889310769543107e+00  9.1108185660183061e+00  3.0721620953407496e+00  6.5541334147061585e+00  8.4336521462425100e+00  7.9570874018539586e+00  8.3809886060248751e+00  3.2187703176170218e-01  2.7898109196215519e+00  2.4723554680727071e+00  2.1692833516964787e+00  1.4200031155734998e+00  1.7955174202033335e+00  4.3818586168606402e+00  5.5158571980239079e+00  5.1498711775806170e+00  7.9908308187279262e+00  9.4420246398446768e+00  9.2414035844376894e+00  7.6883023610777856e+00  7.5258889544260112e+00  4.2231733811264860e+00  5.5459304918444579e+00  1.2999366274168818e+00  1.4996277170917209e+00  1.9852290245931385e+00  1.7825677188002997e+00  2.1422985559950214e+00  2.0338466748954263e+00  1.8573420880033793e+00  6.6659545492701771e+00  6.5899826297572250e+00  4.1119960165694378e+00  6.1890743148824754e+00  9.0794509052830019e+00  3.5928791529060167e+00  3.1240739056928692e+00  9.7505682126882736e+00  8.7276368988977211e+00  8.8915171982231147e+00  5.7276493449041226e+00  9.7734789615195661e-01  6.7329234003676124e+00  5.1235145306625771e+00  3.5424779034047638e+00  7.2414695597421233e+00  8.0377039015346146e+00  1.8888726595903682e+00  8.5752840354715012e+00  8.3497765879160362e+00  7.9823766661377009e+00  9.7090144286253537e+00  8.8815815735733583e+00  8.9814574921560322e+00  9.2524269084231427e+00  8.6250974127560749e+00  3.3126967915041932e+00  1.2209035649493480e+00  1.7791696465538089e+00  9.7182479618784487e+00  3.4125974271306458e+00  1.7930530904675424e+00  6.7655507176780629e+00  7.2888003935576791e+00  4.7318540863680658e+00  3.8779095047179446e+00  5.0418134749806907e+00  2.3975272357091799e+00  2.5376809672746448e+00  2.3156653978177522e+00  2.6644809123403673e-01  3.2440305126062725e+00  8.3729959180633067e+00  8.0343257426558399e+00  1.5350022305003679e+00  9.3089108161451719e+00  8.0804438766691202e+00  8.6395126292507101e+00  7.5889489236368082e+00  6.5380481016993555e+00  1.8333546202144930e+00  1.5703435365342926e+00  1.2448180246902028e+00  1.3376696410566598e+00  6.2194378705684734e+00  7.93667