<?xml version="1.0"?>
<VTKFile type="UnstructuredGrid"  version="0.1"  >
<UnstructuredGrid>
<Piece  NumberOfPoints="2513" NumberOfCells="4852">
<Points>
<DataArray  type="Float64"  NumberOfComponents="3"  format="ascii">-1 1 0  -1 -1 0  1 -1 0  1 1 0  0 -1 0  1 0 0  0 1 0  -1 0 0  0 0 0  -1 -0.5 0  -0.5 -1 0  -0.5 1 0  -1 0.5 0  1 -0.5 0  0.5 -1 0  1 0.5 0  0.5 1 0  0.4166666666666666 -0.4166666666666667 0  -0.4166666666666667 0.4166666666666667 0  -0.25 -0.5 0  0.5 0.25 0  -0.4861111111111112 -0.06944444444444445 0  0.0732758620689655 0.507183908045977 0  -0.625 -0.625 0  0.625 0.625 0  0.7380952380952381 -0.25 0  -0.7099116161616161 0.2105429292929293 0  -0.25 0.7380952380952381 0  0.105392156862745 -0.6348039215686275 0  0.6770833333333334 -0.6770833333333333 0  -0.6770833333333334 0.6770833333333334 0  0.3472222222222222 -0.06944444444444446 0  -0.7264957264957265 -0.3044871794871795 0  0.3141940982507127 0.7297313660835709 0  0.02049587951122483 -0.3227479397556124 0  -0.2690972222222223 0.1475694444444444 0  0.3859500089908372 -0.7274430156831472 0  -0.2228477945123298 -0.1761765495248019 0  0.2182539682539683 0.1884920634920635 0  0.75 0.375 0  -0.145442219440968 -0.7602211097204841 0  0.7088913690476191 0.0427827380952381 0  -0.75 -1 0  -1 -0.75 0  1 0.75 0  0.75 1 0  -0.7439982703698937 -0.04614153195464455 0  -0.4609235096577606 -0.3356498099556895 0  0.4063134471431929 0.4895621842856023 0  0.25 -1 0  -0.25 -1 0  -0.75 1 0  0.75 -1 0  -1 -0.25 0  -1 0.25 0  1 -0.25 0  -0.25 1 0  1 -0.75 0  -1 0.75 0  0.25 1 0  1 0.25 0  -0.4041423272138783 -0.7597141090712928 0  0.06500839607911253 0.7578103030529481 0  -0.1572801182352047 0.3838997021864289 0  -0.6528005242053915 0.4409494757946086 0  -0.4930160984848485 0.1544744318181818 0  -0.4732142857142858 0.7752976190476191 0  0.6398809523809523 -0.4538690476190476 0  0.5166054117396399 -0.2161233620965164 0  -0.002273787244753427 0.2232363985975174 0  0.1500564496765022 -0.1524955293952667 0  0.2016720420046758 -0.4410343282803009 0  -0.08495178036419618 0.6274139771124571 0  -0.8367311471133162 0.3642591720794645 0  -0.8333333333333334 -0.625 0  -0.594323836800685 -0.8231079456002283 0  -0.4466957714776065 -0.5349126855671806 0  0.8125 0.5625 0  0.78125 0.78125 0  0.5091392650016769 0.7947130883338923 0  0.125 -0.8382681931833136 0  -0.8184523809523809 -0.8184523809523809 0  -0.07781530426104531 -0.5819319697006881 0  0.5085055196703295 0.04967610411902112 0  0.2918471072074933 -0.276017202318847 0  0.5120763537765269 -0.5898771553229597 0  0.625 -0.8585349462365591 0  0.8158532234335381 -0.8158532234335381 0  -0.5198088446315396 0.5739411553684605 0  -0.8585349462365591 0.625 0  -0.8150493805516597 0.8156205699829586 0  0.8585349462365591 -0.625 0  -0.2688268348649726 0.5439331383603209 0  0.8242100426758139 -0.4436043596336612 0  0.5833756314287952 0.4479378157143976 0  0.8690476190476191 -0.125 0  -0.125 0.8690476190476191 0  -0.8692745600729823 0.125 0  0.8696725120759167 0.125 0  -0.625 0.8711516477451908 0  0.2339522463269718 0.3879558377955778 0  0.2453709502295031 0.5655822922838026 0  0.1730610651637797 0.02021709580868947 0  0.3245402594056757 -0.5644672020485209 0  -0.7291666666666666 -0.4816595441595442 0  -1 -0.375 0  -0.5811140848639904 -0.2127276307675001 0  0.673332592838314 0.2158348143233718 0  0.375 1 0  -0.5714768890989919 0.2985103444040069 0  -1 -0.125 0  -0.8453692574786325 -0.1875 0  -0.3144549134065865 -0.02408675326008025 0  -0.2898414972096258 -0.3336092734780093 0  -0.1075052092206287 -0.4224330421314983 0  -0.05043970703604117 -0.1652278959397459 0  0.6459672950297897 -0.1113415301525317 0  0.4645210271029513 0.6398480556579343 0  0.3512863754411909 0.0937979496253573 0  -0.6063160985568274 0.03891469652249891 0  -0.3428819444444445 0.8690476190476191 0  0.625 1 0  -0.1602164796159982 0.02697860906625157 0  0.04648110064133829 -0.4808416424239687 0  1 0.875 0  -0.3836102479201657 0.6484936449177356 0  -0.3776011723096096 0.263078478984336 0  -0.6024978259969829 -0.3949628096211138 0  0.125 1 0  0.2010781308272777 0.8456221018461906 0  0.2822509696388829 -0.845902544691141 0  -0.3285533674953515 -0.6289773550938936 0  0.3461306793221754 0.278777492464833 0  0.4737475672408696 -0.8508448959534423 0  0.2384632828836344 -0.7029523187242811 0  -0.004777287059791593 0.3759269695907358 0  -0.8499735021850066 -0.3912320205328522 0  0.1222536293721587 0.2963971539625205 0  -0.3769456520999688 -0.203572526805711 0  -0.2749617205755651 -0.8464290792698902 0  0.004805888512766143 -0.747174355248311 0  -0.125 -1 0  -0.06001061822252458 -0.8724007765244854 0  0.875 0.4375 0  0.854421179608893 0.271342359217786 0  0.875 1 0  -0.1499861095763589 0.2358309656934888 0  0.3381943639137225 0.8663061796405532 0  -0.7853090110442228 0.4998412775277108 0  0.7398165998560814 -0.5535192694951373 0  0.1580042122341573 -0.3100246140259917 0  -0.7291666666666667 -0.7142857142857142 0  -0.375 -1 0  0.6483368386154684 0.8514905990110488 0  -0.1295370103291928 -0.2826118305021242 0  0.07458201853700455 0.1123894386563915 0  0.6146465857036327 -0.3161203659316075 0  0.5551898493894731 -0.740296118159085 0  0.375 -1 0  0.482702798370208 -0.084133350091034 0  0.87890625 0.68359375 0  -0.05917195534525846 0.4971092425697621 0  0.1260710309213975 0.6343750312956699 0  0.8690476190476191 -0.3077066815262848 0  -0.2912010232560567 0.3668168386732139 0  -0.875 1 0  -1 0.875 0  1 -0.875 0  0.875 -1 0  -0.8689564281364567 -0.006189266075306407 0  -0.7449425635110547 0.08458938160051771 0  -0.7150266761936593 -0.1739444581417552 0  -0.5260034831318311 -0.711099823962112 0  -0.4724626808827322 -0.871722230709409 0  0.4734436795977052 0.377714794132168 0  -0.875 -1 0  -1 -0.875 0  0.6927189078571988 0.5156567235715964 0  -0.3742497615796874 -0.4296005251260107 0  -0.1969436423297711 -0.6387157229772615 0  -0.6179496409766825 -0.08933356056510935 0  -0.424405057115988 0.04452428810878029 0  -0.08479048335844169 0.1279607007132633 0  0.003830300099055113 0.8712085230656206 0  0.8748778838820267 -1.379218479898026e-05 0  -0.375 1 0  -0.625 1 0  1 0.125 0  -0.125 1 0  1 -0.375 0  1 -0.125 0  1 -0.625 0  0.625 -1 0  0.125 -1 0  -0.625 -1 0  -1 -0.625 0  -1 0.125 0  -1 0.375 0  -1 0.625 0  1 0.375 0  1 0.625 0  0.6325660748712082 0.3335187599557389 0  -0.06420945895056573 0.7549874027425891 0  -0.8769015540914771 0.2478802253893416 0  0.871875 0.871875 0  -0.6868091492840067 0.3270978624973681 0  -0.5363597469565949 0.412994850055505 0  -0.6803734992638302 0.5574295000651103 0  -0.7076253581162534 -0.8803439094224437 0  -0.8778089002295137 -0.5106896447504627 0  -0.3860184984222981 0.530566778071246 0  0.6109900617121508 0.1128453077697081 0  0.3896945134930274 -0.1915382873255086 0  0.7605656944697778 -0.06822134873122943 0  0.3576151269893478 0.5948388411612135 0  -0.5689902680792265 -0.5143596830118065 0  0.6262446286847614 -0.5735657901943212 0  0.2030558252325225 -0.5625263842513452 0  0.6123273142928579 0.7407533260723429 0  0.4016460890123554 -0.3042863223111857 0  -0.59039693199147 0.7578418819188018 0  0.7276932493917544 -0.3705808024528924 0  0.5222536818742854 -0.4713886230400014 0  -0.5101986527137737 0.8848365765607674 0  0.510560172809238 0.5356013299918891 0  -0.3603569195756083 0.75823710606415 0  0.1967279277813232 0.728226870058472 0  -0.6086880986371127 0.1545624071548516 0  -0.38105366729386 0.1511189987807864 0  -0.2944659463671584 -0.7359061804869591 0  0.5060729154966499 -0.3475227845833823 0  -0.09281616240412746 -0.06197858250969457 0  0.7649739583333334 0.6673177083333334 0  0.7628906249999999 0.890234375 0  -0.2666864184909611 0.2585504071132311 0  0.3635064892129658 0.3878003602709461 0  -0.2339409722222222 0.8901937905844155 0  -0.1718792125974916 -0.8957733325456778 0  0.1001768566329531 0.4023510017391879 0  0.3120260172693757 -0.4540546875576884 0  0.7804062804433681 0.1896628610854537 0  0.4087715451998049 0.187961780041608 0  -0.1584963477271457 0.5451611892421655 0  -0.8926817849258324 0.463022006336401 0  0.2338091473445219 -0.07576267331277289 0  0.08171112182813692 -0.2349087687359925 0  0.04635385178956847 -0.1044635073718474 0  -0.4377391632114205 -0.6448874471423088 0  -0.1907678351227189 0.6480215912813945 0  0.300605946475244 0.4741444604171038 0  -0.2145033720757486 -0.06751709909419711 0  0.6069191921170397 -0.005492331448357812 0  0.0214718770761248 0.6032397936031719 0  0.5476675683364878 0.8992752415326501 0  0.4387475014316537 0.9093708953002239 0  -0.4932997685306436 -0.4381009159993523 0  0.2515197695339056 -0.1791673369138964 0  -0.7291666666666667 -0.6088789682539681 0  -0.9166666666666667 -0.6875 0  0.620579540363709 -0.2122431523583302 0  -0.484950136419973 0.6719440339397442 0  0.2857044415400258 0.0137589173127316 0  -0.8945708364098356 -0.288306105327986 0  0.4043102720140535 0.7842914560451557 0  0.04123256238752064 -0.9026968245801402 0  0.2003676884403109 -0.9091888601740487 0  0.1068775558538842 -0.7373377130403223 0  -0.4804566783514427 -0.1763307203045643 0  0.108286342087769 -0.3993789328997278 0  -0.191883080105361 -0.3640821726430649 0  -0.07025064492006244 0.2984876656890053 0  -0.7039324641409584 0.788312126296613 0  -0.7311286585775438 0.8932502354831682 0  0.5171409396884947 0.1503852691889257 0  0.4229392823658633 -0.003216522184234835 0  -0.5621736087218259 -0.919558629836806 0  -0.626474064879544 -0.7266572613636506 0  0.2446828746617422 0.2867616783302419 0  0.1759429608742923 0.4776611759306416 0  -0.3468240303741654 -0.5260416435617549 0  -0.7465808808425306 0.4069574477998361 0  -0.7819962170660292 0.2802441065650652 0  -0.3742623214119594 -0.8547800509641984 0  0.1014498009713561 0.8506721983266377 0  0.4285217620918213 -0.5230190595570253 0  0.4091738370487775 -0.6256346204225141 0  0.78125 0.46875 0  0.90625 0.53125 0  -0.4791801348852565 0.2553992655702126 0  0.7843318610782772 -0.7086046956885941 0  0.8909728264971901 -0.7355183796514634 0  0.7041908166528879 -0.7830649143180282 0  0.7311821352
[...]
<PointData  Scalars="f_31-2"> 
<DataArray  type="Float64"  Name="f_31-2"  format="ascii">0.0000000000000000e+00  0.0000000000000000e+00  1.0000000000000000e+01  1.0000000000000000e+01  4.9998876248957966e+00  1.0000000000000000e+01  4.9998875728433907e+00  0.0000000000000000e+00  4.9998876109785915e+00  0.0000000000000000e+00  2.4999204818639629e+00  2.4999205139919667e+00  0.0000000000000000e+00  1.0000000000000000e+01  7.4999205094076657e+00  1.0000000000000000e+01  7.4999205124600223e+00  7.0832441979922347e+00  2.9165775402455685e+00  3.7498961851598387e+00  7.4999205524730206e+00  2.5693632632593535e+00  5.3662676884547382e+00  1.8749375888331370e+00  8.1249375895892211e+00  8.6904312700567008e+00  1.4503924580254037e+00  3.7498961838553235e+00  5.5268499711597459e+00  8.3853620799627642e+00  1.6145287614081194e+00  6.7360150420509273e+00  1.3674745782190874e+00  6.5708715345789201e+00  5.1023670938233163e+00  3.6544114181312812e+00  6.9296577107465058e+00  3.8856554741197336e+00  6.0911640191368939e+00  8.7499570062347498e+00  4.2726794520190516e+00  8.5444072348425362e+00  1.2499569838839322e+00  0.0000000000000000e+00  1.0000000000000000e+01  8.7499569961163033e+00  1.2799646585863371e+00  2.6952982860844799e+00  7.0314769514141462e+00  6.2498961538196962e+00  3.7498961569844118e+00  1.2499570015560839e+00  8.7499569813897118e+00  0.0000000000000000e+00  0.0000000000000000e+00  1.0000000000000000e+01  3.7498962146308545e+00  1.0000000000000000e+01  0.0000000000000000e+00  6.2498961840805434e+00  1.0000000000000000e+01  2.9791978984577701e+00  5.3249302136069065e+00  4.2134904318588680e+00  1.7359390729214992e+00  2.5348391530694494e+00  2.6338458258590420e+00  8.1993445174768098e+00  7.5829497276344133e+00  4.9885187062426395e+00  5.7501729597566609e+00  6.0082534046941083e+00  4.5751297088289187e+00  8.1631576190556610e-01  8.3330425820974696e-01  2.0283139747937446e+00  2.7664353351034086e+00  9.0624673892257679e+00  8.9062121529709017e+00  7.5456179983476375e+00  5.6248898302670423e+00  9.0770648870157356e-01  4.6108119795419320e+00  7.5424492069726350e+00  6.4591347856973842e+00  7.5603038390757833e+00  8.1249375733523692e+00  9.0792340667935285e+00  2.4008788240033194e+00  7.0730050391728982e-01  9.2472090550418584e-01  9.2926499688620474e+00  3.6557633566097052e+00  9.1210195689785838e+00  7.9168097661128440e+00  9.3452151418585476e+00  4.3748897464087468e+00  6.5360428165704343e-01  9.3483397112625912e+00  1.8749375544273055e+00  6.1696563575428929e+00  6.2267505977092874e+00  5.8651970530645041e+00  6.6226032408909585e+00  1.3541202864793140e+00  0.0000000000000000e+00  2.0943608826532709e+00  8.3666078105828436e+00  6.8749065002193497e+00  2.1425454757843911e+00  0.0000000000000000e+00  7.7312669365892128e-01  3.4276264810069526e+00  3.5506916345237802e+00  4.4623632073218289e+00  4.7476894617700438e+00  8.2297771504943551e+00  7.3225214145122974e+00  6.7563361692897956e+00  1.9683543455248274e+00  3.2854938232734390e+00  8.1249375621048454e+00  4.1988087912716061e+00  5.2322934107909074e+00  1.0000000000000000e+01  3.0818561851989785e+00  3.1119009752335214e+00  1.9874451742843071e+00  5.6248897637308684e+00  6.0052838641170423e+00  6.4111533322607652e+00  3.3571354609665365e+00  6.7305572751495397e+00  7.3686551684047652e+00  6.1922118512732416e+00  4.9760012150665593e+00  7.5010625259533603e-01  5.6111578680140628e+00  3.1151784899758552e+00  3.6250893539722280e+00  5.0239170805006426e+00  4.3748897654404946e+00  4.6998350072574162e+00  9.3749780821422952e+00  9.2720804266984160e+00  9.3749780810182592e+00  4.2499601702881629e+00  6.6908749446016351e+00  1.0734177852384450e+00  8.6990383491138772e+00  5.7899121377697416e+00  1.3541203051587760e+00  3.1249065677320931e+00  8.2416252247998720e+00  4.3522048906695678e+00  5.3727985248237031e+00  8.0731690034260843e+00  7.7758769776988172e+00  6.8749065497847788e+00  7.4134323958488579e+00  9.3945100124842273e+00  4.7040283537343823e+00  5.6302449980504488e+00  9.3452151494441829e+00  3.5438940963888150e+00  6.2497806440523507e-01  0.0000000000000000e+00  1.0000000000000000e+01  9.3749780705075114e+00  6.5519489204251113e-01  1.2752433501469693e+00  1.4248179852046616e+00  2.3699064357116932e+00  2.6376037801135959e+00  7.3671356967056472e+00  6.2497807161990970e-01  0.0000000000000000e+00  8.4635423884607235e+00  3.1286576947247347e+00  4.0151747804994331e+00  1.9101883438199938e+00  2.8778864315887991e+00  4.5759362088865769e+00  5.0190391706095889e+00  9.3743674815233362e+00  3.1249065143512165e+00  1.8749375508326125e+00  1.0000000000000000e+01  4.3748897764853094e+00  1.0000000000000000e+01  1.0000000000000000e+01  1.0000000000000000e+01  8.1249375540542825e+00  5.6248897752115621e+00  1.8749375610197352e+00  0.0000000000000000e+00  0.0000000000000000e+00  0.0000000000000000e+00  0.0000000000000000e+00  1.0000000000000000e+01  1.0000000000000000e+01  8.1627690716754930e+00  4.6788409132995419e+00  6.1547062700169186e-01  9.3593525344182726e+00  1.5659011542771055e+00  2.3181264641199224e+00  1.5980784204138641e+00  1.4618234125570491e+00  6.1093405983538063e-01  3.0698151808099583e+00  8.0548858500802130e+00  6.9483806771896148e+00  8.8027872012198891e+00  6.7879805368266473e+00  2.1549782774925972e+00  8.1311608898915324e+00  6.0151724190856211e+00  8.0615722874145366e+00  7.0081397172388744e+00  2.0479479186238398e+00  8.6384196393448125e+00  7.6111917724061993e+00  2.4489285752653722e+00  7.5527227340502536e+00  3.1981205445832557e+00  5.9835326038224901e+00  1.9564946973617205e+00  3.0946388204675594e+00  3.5275697142549403e+00  7.5302858831809134e+00  4.5358079988490170e+00  8.8248292523255145e+00  8.8144122309584514e+00  3.6664652323003373e+00  6.8174379307321207e+00  3.8301902972676141e+00  4.1404956320604560e+00  5.5007733053610446e+00  6.5600308971567705e+00  8.9019933969671055e+00  7.0437677112077628e+00  4.2074093401194039e+00  5.3657221497858054e-01  6.1689408685725127e+00  5.4084442008507008e+00  5.2316572030361543e+00  2.8112173336087780e+00  4.0460534656783658e+00  6.5029296534217647e+00  3.9273770228470428e+00  8.0345309002489635e+00  5.1072470578889479e+00  7.7382645566484980e+00  7.1936507611718232e+00  2.5334208834907863e+00  6.2574951154019871e+00  1.3541203101813577e+00  4.1665199525009100e-01  8.1028346354556486e+00  2.5751680192290398e+00  6.4284209655564659e+00  5.2712729469445374e-01  7.0214609069835729e+00  5.2060506550856296e+00  6.0017315721570714e+00  5.5342770262275689e+00  2.5976347366503294e+00  5.5413209651561246e+00  4.0404773148772861e+00  4.6486350909782512e+00  1.4802872868802690e+00  1.3443106248528722e+00  7.5856274012429648e+00  7.1146079454921303e+00  2.1890606204138741e+00  1.8675674832922013e+00  6.2233101919354787e+00  5.8796067055633738e+00  3.2657837264995901e+00  1.2670520392128952e+00  1.0899811721748907e+00  3.1285948759780062e+00  5.5071380761247060e+00  7.1425209867833734e+00  7.0457792375369772e+00  8.9062121543633879e+00  9.5312335157543231e+00  2.6040172976223936e+00  8.9216219658806910e+00  9.4548449839299327e+00  8.5209037214085193e+00  8.6558646287972643e+00  4.0969249751243136e-01  4.6567092372427682e-01  1.0787056899154590e+00  3.8313892357528823e+00  1.0014135349175373e+00  5.1180286621316662e-01  4.5385307783348111e-01  8.7050536153823921e-01  8.6157181424278595e-01  9.4636427534688838e+00  3.5639643313365901e+00  2.0917209886190928e+00  6.8928400999996970e+00  4.6182389469490586e+00  5.1122448437903252e+00  4.1640374347158398e+00  1.1573265357304869e+00  6.5673711319473291e+00  5.6045329453951309e+00  3.0684220775724174e+00  3.3542809644126073e+00  3.9261594060180666e-01  7.8124287174990279e+00  9.4766305127039789e+00  9.5335343956793785e+00  9.3769312762695769e+00  2.3537441068545948e+00  2.6387958390060984e+00  2.0249541335240613e+00  6.2035586272439023e+00  8.7276210911976051e+00  3.3621364405422236e+00  6.6055004362299066e+00  6.1689169661870933e+00  4.2004207269273452e+00  7.3679501072431055e+00  4.1054978622183196e+00  1.8602995270468667e+00  8.6719743396613964e+00  3.4374008994636887e+00  8.9004800730313054e+00  8.6068845898926671e-01  9.5348935708132974e+00  3.3514228783537653e-01  2.4265124533661293e+00  8.3455227687567923e+00  8.0076007446268864e+00  7.9443898332310248e+00  4.6873881414960090e+00  1.0611953954973294e+00  3.2680208510258474e-01  9.0085972208595706e+00  9.6741698048283133e+00  3.4605227467428561e+00  6.5624008916335530e+00  7.6405654845445659e+00  7.1874131763565803e+00  9.6740328860305951e+00  9.0624673882907665e+00  6.4219981436452755e+00  5.6453043571607697e+00  2.8124131203487299e+00  1.2160686739410629e+00  1.0382548895769168e+00  1.6699861356833900e+00  9.6737784729976894e+00  3.1320763212081953e-01  3.1356912099145207e-01  9.6741698056968772e+00  9.6726075120054222e+00  5.3123881381760860e+00  4.0261809910268764e-01  9.6722354752793311e+00  8.5492513686187834e+00  7.9135879316588156e+00  5.5668477666958740e+00  5.9349702727983855e+00  8.4374470362944027e+00  6.9270798738518824e+00  6.7041644471364439e+00  5.0088978694446480e+00  5.4240498094660268e+00  3.2680207740591366e-01  1.5670438588890412e+00  8.5159332614937178e+00  3.7600015999184921e+00  4.2457718179557915e+00  2.6278628670746160e+00  4.9738745788174299e+00  5.9373924622863239e+00  2.4651520594168082e+00  3.5634650838277198e+00  3.1235285058910232e+00  3.8900686677089880e+00  7.8915882518647260e+00  7.2054805703929379e+00  9.1103949250015521e+00  5.0293789381438954e+00  2.4356018059525750e+00  9.6085558292788875e-01  3.5190778914100957e+00  8.6642634926808384e+00  9.1833640349821533e+00  4.1665200054311596e-01  3.7000814251832181e-01  7.8299575254165585e+00  8.4824534355862014e+00  3.9098646460373425e+00  8.4196734751905584e+00  4.3707822405119154e+00  6.3143502034473595e+00  7.7237166475136778e+00  2.8440389787350231e+00  2.2439777938867205e+00  4.7677907249074947e+00  4.9464813773523408e+00  4.6763576638107072e+00  5.7102898992808120e+00  2.2333387635524238e+00  1.7860592176202592e+00  1.9613526839188224e+00  1.8156051382582614e+00  2.2750470915324903e+00  2.1874286707116646e+00  4.6235144118547131e+00  4.9849707307341165e+00  4.0666253586234182e+00  7.5094025820800780e+00  6.2736233023475698e+00  1.6761174273569925e+00  2.2454513560957712e+00  8.7382014541471609e+00  4.3191926701689836e+00  7.0653351413868686e+00  7.7143575769810768e+00  7.1769990997632274e+00  2.8124131326578974e+00  6.0717209849303293e+00  3.5024596886568062e+00  3.5255910773553705e+00  5.7826817305592453e+00  5.0414721910533444e+00  5.6011496463277499e+00  6.0280970238625837e+00  4.6017584733028931e+00  3.1398927902487346e+00  2.9686597360168876e+00  9.1021595859399866e+00  9.6853183559458866e+00  6.5844697585879484e+00  4.4008226616704843e-01  4.2516016334657847e+00  7.2669455941420882e+00  3.3832307207635814e+00  9.1340690354931446e+00  2.8597584321313869e+00  6.5002474119943559e+00  3.8735167925686134e+00  2.7627696845145446e+00  9.6463249098005424e+00  5.1552820589564174e-01  5.7411694980983983e+00  8.1235793518286457e+00  9.3936221856149338e+00  3.1248897862729358e-01  8.9381484924217087e+00  4.0623925012825373e+00  3.3344649282760948e+00  1.6009813274082458e+00  3.9383041725039769e-01  6.3227334415642433e+00  1.0395880434919866e+00  1.6775081948580890e+00  1.7102818619806930e+00  5.1726263384185058e+00  5.1811111018775780e+00  8.4374470058994024e+00  8.3117681892462194e+00  6.2496906226359732e+00  1.0000000000000000e+01  2.8786655150302258e+00  9.5205653746866192e-01  7.7467958648844917e+00  3.5816629968908473e+00  3.1221265422191999e+00  4.6509645437495744e+00  1.8398591992302369e+00  1.5624470158910468e+00  7.8807908952360775e+00  8.6021218672347040e+00  2.3054698482073874e+00  2.2124507511921414e+00  6.5624008919178305e+00  3.0477044615434949e+00  5.8176360660909419e+00  2.8993302166635631e+00  4.2796499937320531e+00  3.9648315861711581e+00  4.6170745361204926e+00  1.0000000000000000e+01  9.3102100685705054e+00  7.6587329448527974e+00  7.3091520566074726e+00  7.2994368482064675e-01  8.4529451685620707e+00  7.9394841459246361e+00  6.4653536474548945e+00  4.8653766457992482e+00  1.5624470028232882e+00  9.6687258770595825e+00  4.1494107953845454e+00  3.7862597248194998e+00  1.4116469630714850e+00  9.2882303774720032e-01  7.2280969426014359e+00  8.0891562057654998e+00  3.9980033405244932e+00  5.1750856098666089e+00  5.8164229338968108e+00  5.8753831836692170e+00  5.5915001559458144e+00  1.8453965564187524e+00  7.9178777969979297e+00  0.0000000000000000e+00  1.7186922154883411e+00  2.0800131629447711e+00  4.4671309411604829e+00  2.8771398547458515e+00  3.3551324045629030e+00  9.1912027796138762e+00  7.0535828413245536e+00  7.2982644226446718e+00  4.5894402483341565e+00  3.5365017665334680e-01  8.4128215350337321e+00  4.3681549371315516e+00  4.8851108156737215e+00  4.9117992567617534e+00  1.0000000000000000e+01  8.2562886403637457e+00  7.8517180398645277e+00  8.3389167807848334e+00  3.2278744959011809e+00  9.6874889887538842e+00  9.2187227099691746e+00  9.6360456101419203e+00  0.0000000000000000e+00  9.6874889841497680e+00  4.4058083253463058e+00  1.2024388516906501e+00  1.5601097540021067e+00  6.5927686668070500e+00  6.6138394433510728e+00  6.8535562239146595e+00  6.7680266544825187e+00  9.6537418298758126e+00  9.0791508958214493e+00  5.8751579922828396e+00  5.4529145961778855e+00  7.7932407776735524e-01  3.8757271619728715e+00  5.3714692561852813e+00  3.6736314427708763e+00  2.5909625124598330e+00  1.1309132928396863e+00  1.6381410796589404e+00  1.0937121468532081e+00  3.3973889752733797e+00  8.4468978142361451e+00  1.9309117592756255e+00  7.0512346419719858e+00  0.0000000000000000e+00  2.2834596924683002e+00  9.6629599266649997e+00  6.1571643951405119e-01  6.8042170650741198e+00  5.2651054917215623e+00  3.1632848960862270e+00  6.0622939960321700e+00  5.2840500595987354e+00  4.7002870677553998e+00  4.9982979398485980e+00  7.2591920856806968e+00  9.6726789155980626e+00  9.8709571158888132e-01  9.0220868124381539e+00  5.3489608231575225e+00  9.6804978102321826e+00  5.7529803936007564e+00  6.7349828451278420e+00  5.0237053018540578e+00  2.1515843406838160e+00  4.5462692157101641e+00  1.0000000000000000e+01  5.3849305820891340e+00  1.1116537487607958e+00  6.5030470172737527e+00  1.3925886309763902e+00  4.3692045901851237e+00  9.0135618243668478e+00  7.5017884765655243e+00  1.2388129677219923e+00  1.1354621663017161e+00  3.3213659952277723e+00  9.3098677316729483e-01  2.1379415388251757e+00  2.5143329179166565e+00  2.3123311675720783e+00  2.7608747393280026e+00  2.6539243909881471e+00  9.6726075148215802e+00  1.0000000000000000e+01  1.3763600203017525e+00  5.3968864618820920e+00  8.1319743666094269e+00  7.4029617991697929e+00  7.1107498661847384e+00  7.7004591139102834e+00  9.2447851096369025e+00  4.0623924024644751e+00  8.7834385083279134e+00  3.8024059660908831e+00  4.0517516235970730e+00  6.2588700720868333e+00  9.1318648603092640e+00  5.6919624653432352e+00  3.1755477090175792e+00  8.3060729128325512e+00  4.3538665987574463e+00  5.8480353564214189e+00  8.3440339630395179e+00  8.2090917432346231e+00  5.3123880839659359e+00  0.0000000000000000e+00  9.1497281580412544e+00  0.0000000000000000e+00  8.1096650389307250e+00  4.6884146072241899e+00  2.8188835614957579e+00  2.8410207503087230e+00  2.8838105153948965e+00  6.7707770060733132e+00  4.3069215113143997e+00  7.8124286949203299e+00  1.3048646326561966e+00  3.9484784480998543e+00  8.5606607201565428e+00  7.5834289580550136e+00  1.3541202692250278e+00  4.3198365872796778e+00  4.3704971804853248e+00  5.2612156816346101e+00  8.9018835752063463e+00  7.8831521472576966e+00  6.8769913382434771e+00  6.3448865287415890e+00  8.5004954360177436e+00  9.3616243052670054e+00  9.6871822738399480e+00  7.4959987893820843e+00  7.5022317008139683e-01  5.0001540528569404e+00  3.4326759902267073e-01  5.6225539433900771e+00  9.6872139975565297e+00  1.0000000000000000e+01  1.0000000000000000e+01  9.0624673823674335e+00  3.4374008829260307e+00  8.4374469957357174e+00  0.0000000000000000e+00  3.1248898569444156e-01  5.3123881183850479e+00  0.0000000000000000e+00  1.0000000000000000e+01  2.8124130972978718e+00  9.0624673728405245e+00  1.0000000000000000e+01  7.1874130906317557e+00  6.5624008449416307e+00  1.0000000000000000e+01  1.0000000000000000e+01  1.0000000000000000e+01  0.0000000000000000e+00  0.0000000000000000e+00  0.0000000000000000e+00  4.6873881479014052e+00  0.0000000000000000e+00  3.4374008332575587e+00  7.8124286957530913e+00  0.0000000000000000e+00  9.3746736886756388e-01  9.3746736114884610e-01  0.0000000000000000e+00  2.1874287036175679e+00  5.9373924115014223e+00  0.0000000000000000e+00  7.1874131321834698e+00  1.0000000000000000e+01  1.0000000000000000e+01  9.6874889854647481e+00  0.0000000000000000e+00  5.9373924009256251e+00  0.0000000000000000e+00  4.6873881780494351e+00  1.0000000000000000e+01  1.0000000000000000e+01  2.3392778680568989e+00  7.5879832777235512e+00  2.7149372992477322e-01  6.1945667884459876e+00  5.8357823211661541e+00  8.0117816265565889e+00  3.9026868097567267e+00  2.1993239682425121e+00  2.4394229896334898e+00  1.9685020896771925e+00  9.0094293940875723e+00  1.7186922292482969e+00  2.9463655973316416e-01  1.4650132102799529e+00  8.5925156014649904e+00  6.3399241518905747e-01  7.8980248494432448e-01  3.0733015273572634e-01  6.3843251434397585e-01  4.6873351300607730e-01  7.0305327338914225e-01  6.5379479348461933e-01  9.0402781127096272e+00  8.6982887583151012e+00  2.3297073237966766e+00  5.6557285612781971e+00  9.6548930119949059e+00  9.2132699135145757e-01  6.4283755635572888e+00  4.2319217828701632e+00  1.3894663485012544e+00  3.9334607911433563e+00  2.9023383532451699e+00  3.5969544181799677e+00  7.6691034972417702e+00  9.1959260412021528e+00  2.1353194023216586e+00  8.8560652236509032e+00  8.5755841253457383e+00  6.7624564284338531e+00  3.4619007607881711e+00  4.8110528140411972e+00  7.0109248130219024e+00  2.6393306278315563e+00  5.4061294909221651e+00  9.0107209946292137e+00  2.8812982214920297e+00  6.2788561931344171e+00  8.2665370003255525e+00  7.7506832822831075e+00  8.2092241181707788e+00  3.0113678775420544e-01  2.6148895257012539e+00  2.3160605829234666e+00  2.0313718295645313e+00  1.3289333815611373e+00  1.6807921042055847e+00  4.1287220857785307e+00  5.2344910687531385e+00  4.8740654278408648e+00  7.7869867106161204e+00  9.3781954323556089e+00  9.1554138688133868e+00  7.4631256030899760e+00  7.2905867718660193e+00  3.9761111304635564e+00  5.2641725912304569e+00  1.2164265848861369e+00  1.4035006945478707e+00  1.8586606614148620e+00  1.6685930401977125e+00  2.0060379341728267e+00  1.9043210520359453e+00  1.7387027433184103e+00  6.3935376324646960e+00  6.3154671357630514e+00  3.8696481223231940e+00  5.9075306707350759e+00  8.9760249564876951e+00  3.3745719254690898e+00  2.9303850484901282e+00  9.7217997715263209e+00  8.5882496172903604e+00  8.7685003572654221e+00  5.4446107876087462e+00  9.1446371238391944e-01  6.4623757833054611e+00  4.8483078552595718e+00  3.3266114600233223e+00  6.9907203958309276e+00  7.8374077864711529e+00  1.7682862712252496e+00  8.4211256214477519e+00  8.1751939435734471e+00  7.7778947048190323e+00  9.6755017384726045e+00  8.7576090846830361e+00  8.8677106735655613e+00  9.1676270578517212e+00  8.4757555397343047e+00  3.1088041758747926e+00  1.1424886224669901e+00  1.6654063154490306e+00  9.6858110148544974e+00  3.2034219453185306e+00  1.6784238772070934e+00  6.4960159557106376e+00  7.0405601330311880e+00  4.4668689079937565e+00  3.6459275571566483e+00  4.7683648410254129e+00  2.2456839670286555e+00  2.3776114937166999e+00  2.1688441619114749e+00  2.4928970256652067e-01  3.0438101139492395e+00  8.2004667496096602e+00  7.8336833708253168e+00  1.4365839507167160e+00  9.2303638226128299e+00  7.8834539934338892e+00  8.4915091847822826e+00  7.3574177731186392e+00  6.2624603646962003e+00  1.7162069907945063e+00  1.4697255917804435e+00  1.1648700276805772e+00  1.2517747431542934e+00  5.9382320840909042e+00  7.7286522888922