<?xml version="1.0"?>
<VTKFile type="UnstructuredGrid"  version="0.1"  >
<UnstructuredGrid>
<Piece  NumberOfPoints="2513" NumberOfCells="4852">
<Points>
<DataArray  type="Float64"  NumberOfComponents="3"  format="ascii">-1 1 0  -1 -1 0  1 -1 0  1 1 0  0 -1 0  1 0 0  0 1 0  -1 0 0  0 0 0  -1 -0.5 0  -0.5 -1 0  -0.5 1 0  -1 0.5 0  1 -0.5 0  0.5 -1 0  1 0.5 0  0.5 1 0  0.4166666666666666 -0.4166666666666667 0  -0.4166666666666667 0.4166666666666667 0  -0.25 -0.5 0  0.5 0.25 0  -0.4861111111111112 -0.06944444444444445 0  0.0732758620689655 0.507183908045977 0  -0.625 -0.625 0  0.625 0.625 0  0.7380952380952381 -0.25 0  -0.7099116161616161 0.2105429292929293 0  -0.25 0.7380952380952381 0  0.105392156862745 -0.6348039215686275 0  0.6770833333333334 -0.6770833333333333 0  -0.6770833333333334 0.6770833333333334 0  0.3472222222222222 -0.06944444444444446 0  -0.7264957264957265 -0.3044871794871795 0  0.3141940982507127 0.7297313660835709 0  0.02049587951122483 -0.3227479397556124 0  -0.2690972222222223 0.1475694444444444 0  0.3859500089908372 -0.7274430156831472 0  -0.2228477945123298 -0.1761765495248019 0  0.2182539682539683 0.1884920634920635 0  0.75 0.375 0  -0.145442219440968 -0.7602211097204841 0  0.7088913690476191 0.0427827380952381 0  -0.75 -1 0  -1 -0.75 0  1 0.75 0  0.75 1 0  -0.7439982703698937 -0.04614153195464455 0  -0.4609235096577606 -0.3356498099556895 0  0.4063134471431929 0.4895621842856023 0  0.25 -1 0  -0.25 -1 0  -0.75 1 0  0.75 -1 0  -1 -0.25 0  -1 0.25 0  1 -0.25 0  -0.25 1 0  1 -0.75 0  -1 0.75 0  0.25 1 0  1 0.25 0  -0.4041423272138783 -0.7597141090712928 0  0.06500839607911253 0.7578103030529481 0  -0.1572801182352047 0.3838997021864289 0  -0.6528005242053915 0.4409494757946086 0  -0.4930160984848485 0.1544744318181818 0  -0.4732142857142858 0.7752976190476191 0  0.6398809523809523 -0.4538690476190476 0  0.5166054117396399 -0.2161233620965164 0  -0.002273787244753427 0.2232363985975174 0  0.1500564496765022 -0.1524955293952667 0  0.2016720420046758 -0.4410343282803009 0  -0.08495178036419618 0.6274139771124571 0  -0.8367311471133162 0.3642591720794645 0  -0.8333333333333334 -0.625 0  -0.594323836800685 -0.8231079456002283 0  -0.4466957714776065 -0.5349126855671806 0  0.8125 0.5625 0  0.78125 0.78125 0  0.5091392650016769 0.7947130883338923 0  0.125 -0.8382681931833136 0  -0.8184523809523809 -0.8184523809523809 0  -0.07781530426104531 -0.5819319697006881 0  0.5085055196703295 0.04967610411902112 0  0.2918471072074933 -0.276017202318847 0  0.5120763537765269 -0.5898771553229597 0  0.625 -0.8585349462365591 0  0.8158532234335381 -0.8158532234335381 0  -0.5198088446315396 0.5739411553684605 0  -0.8585349462365591 0.625 0  -0.8150493805516597 0.8156205699829586 0  0.8585349462365591 -0.625 0  -0.2688268348649726 0.5439331383603209 0  0.8242100426758139 -0.4436043596336612 0  0.5833756314287952 0.4479378157143976 0  0.8690476190476191 -0.125 0  -0.125 0.8690476190476191 0  -0.8692745600729823 0.125 0  0.8696725120759167 0.125 0  -0.625 0.8711516477451908 0  0.2339522463269718 0.3879558377955778 0  0.2453709502295031 0.5655822922838026 0  0.1730610651637797 0.02021709580868947 0  0.3245402594056757 -0.5644672020485209 0  -0.7291666666666666 -0.4816595441595442 0  -1 -0.375 0  -0.5811140848639904 -0.2127276307675001 0  0.673332592838314 0.2158348143233718 0  0.375 1 0  -0.5714768890989919 0.2985103444040069 0  -1 -0.125 0  -0.8453692574786325 -0.1875 0  -0.3144549134065865 -0.02408675326008025 0  -0.2898414972096258 -0.3336092734780093 0  -0.1075052092206287 -0.4224330421314983 0  -0.05043970703604117 -0.1652278959397459 0  0.6459672950297897 -0.1113415301525317 0  0.4645210271029513 0.6398480556579343 0  0.3512863754411909 0.0937979496253573 0  -0.6063160985568274 0.03891469652249891 0  -0.3428819444444445 0.8690476190476191 0  0.625 1 0  -0.1602164796159982 0.02697860906625157 0  0.04648110064133829 -0.4808416424239687 0  1 0.875 0  -0.3836102479201657 0.6484936449177356 0  -0.3776011723096096 0.263078478984336 0  -0.6024978259969829 -0.3949628096211138 0  0.125 1 0  0.2010781308272777 0.8456221018461906 0  0.2822509696388829 -0.845902544691141 0  -0.3285533674953515 -0.6289773550938936 0  0.3461306793221754 0.278777492464833 0  0.4737475672408696 -0.8508448959534423 0  0.2384632828836344 -0.7029523187242811 0  -0.004777287059791593 0.3759269695907358 0  -0.8499735021850066 -0.3912320205328522 0  0.1222536293721587 0.2963971539625205 0  -0.3769456520999688 -0.203572526805711 0  -0.2749617205755651 -0.8464290792698902 0  0.004805888512766143 -0.747174355248311 0  -0.125 -1 0  -0.06001061822252458 -0.8724007765244854 0  0.875 0.4375 0  0.854421179608893 0.271342359217786 0  0.875 1 0  -0.1499861095763589 0.2358309656934888 0  0.3381943639137225 0.8663061796405532 0  -0.7853090110442228 0.4998412775277108 0  0.7398165998560814 -0.5535192694951373 0  0.1580042122341573 -0.3100246140259917 0  -0.7291666666666667 -0.7142857142857142 0  -0.375 -1 0  0.6483368386154684 0.8514905990110488 0  -0.1295370103291928 -0.2826118305021242 0  0.07458201853700455 0.1123894386563915 0  0.6146465857036327 -0.3161203659316075 0  0.5551898493894731 -0.740296118159085 0  0.375 -1 0  0.482702798370208 -0.084133350091034 0  0.87890625 0.68359375 0  -0.05917195534525846 0.4971092425697621 0  0.1260710309213975 0.6343750312956699 0  0.8690476190476191 -0.3077066815262848 0  -0.2912010232560567 0.3668168386732139 0  -0.875 1 0  -1 0.875 0  1 -0.875 0  0.875 -1 0  -0.8689564281364567 -0.006189266075306407 0  -0.7449425635110547 0.08458938160051771 0  -0.7150266761936593 -0.1739444581417552 0  -0.5260034831318311 -0.711099823962112 0  -0.4724626808827322 -0.871722230709409 0  0.4734436795977052 0.377714794132168 0  -0.875 -1 0  -1 -0.875 0  0.6927189078571988 0.5156567235715964 0  -0.3742497615796874 -0.4296005251260107 0  -0.1969436423297711 -0.6387157229772615 0  -0.6179496409766825 -0.08933356056510935 0  -0.424405057115988 0.04452428810878029 0  -0.08479048335844169 0.1279607007132633 0  0.003830300099055113 0.8712085230656206 0  0.8748778838820267 -1.379218479898026e-05 0  -0.375 1 0  -0.625 1 0  1 0.125 0  -0.125 1 0  1 -0.375 0  1 -0.125 0  1 -0.625 0  0.625 -1 0  0.125 -1 0  -0.625 -1 0  -1 -0.625 0  -1 0.125 0  -1 0.375 0  -1 0.625 0  1 0.375 0  1 0.625 0  0.6325660748712082 0.3335187599557389 0  -0.06420945895056573 0.7549874027425891 0  -0.8769015540914771 0.2478802253893416 0  0.871875 0.871875 0  -0.6868091492840067 0.3270978624973681 0  -0.5363597469565949 0.412994850055505 0  -0.6803734992638302 0.5574295000651103 0  -0.7076253581162534 -0.8803439094224437 0  -0.8778089002295137 -0.5106896447504627 0  -0.3860184984222981 0.530566778071246 0  0.6109900617121508 0.1128453077697081 0  0.3896945134930274 -0.1915382873255086 0  0.7605656944697778 -0.06822134873122943 0  0.3576151269893478 0.5948388411612135 0  -0.5689902680792265 -0.5143596830118065 0  0.6262446286847614 -0.5735657901943212 0  0.2030558252325225 -0.5625263842513452 0  0.6123273142928579 0.7407533260723429 0  0.4016460890123554 -0.3042863223111857 0  -0.59039693199147 0.7578418819188018 0  0.7276932493917544 -0.3705808024528924 0  0.5222536818742854 -0.4713886230400014 0  -0.5101986527137737 0.8848365765607674 0  0.510560172809238 0.5356013299918891 0  -0.3603569195756083 0.75823710606415 0  0.1967279277813232 0.728226870058472 0  -0.6086880986371127 0.1545624071548516 0  -0.38105366729386 0.1511189987807864 0  -0.2944659463671584 -0.7359061804869591 0  0.5060729154966499 -0.3475227845833823 0  -0.09281616240412746 -0.06197858250969457 0  0.7649739583333334 0.6673177083333334 0  0.7628906249999999 0.890234375 0  -0.2666864184909611 0.2585504071132311 0  0.3635064892129658 0.3878003602709461 0  -0.2339409722222222 0.8901937905844155 0  -0.1718792125974916 -0.8957733325456778 0  0.1001768566329531 0.4023510017391879 0  0.3120260172693757 -0.4540546875576884 0  0.7804062804433681 0.1896628610854537 0  0.4087715451998049 0.187961780041608 0  -0.1584963477271457 0.5451611892421655 0  -0.8926817849258324 0.463022006336401 0  0.2338091473445219 -0.07576267331277289 0  0.08171112182813692 -0.2349087687359925 0  0.04635385178956847 -0.1044635073718474 0  -0.4377391632114205 -0.6448874471423088 0  -0.1907678351227189 0.6480215912813945 0  0.300605946475244 0.4741444604171038 0  -0.2145033720757486 -0.06751709909419711 0  0.6069191921170397 -0.005492331448357812 0  0.0214718770761248 0.6032397936031719 0  0.5476675683364878 0.8992752415326501 0  0.4387475014316537 0.9093708953002239 0  -0.4932997685306436 -0.4381009159993523 0  0.2515197695339056 -0.1791673369138964 0  -0.7291666666666667 -0.6088789682539681 0  -0.9166666666666667 -0.6875 0  0.620579540363709 -0.2122431523583302 0  -0.484950136419973 0.6719440339397442 0  0.2857044415400258 0.0137589173127316 0  -0.8945708364098356 -0.288306105327986 0  0.4043102720140535 0.7842914560451557 0  0.04123256238752064 -0.9026968245801402 0  0.2003676884403109 -0.9091888601740487 0  0.1068775558538842 -0.7373377130403223 0  -0.4804566783514427 -0.1763307203045643 0  0.108286342087769 -0.3993789328997278 0  -0.191883080105361 -0.3640821726430649 0  -0.07025064492006244 0.2984876656890053 0  -0.7039324641409584 0.788312126296613 0  -0.7311286585775438 0.8932502354831682 0  0.5171409396884947 0.1503852691889257 0  0.4229392823658633 -0.003216522184234835 0  -0.5621736087218259 -0.919558629836806 0  -0.626474064879544 -0.7266572613636506 0  0.2446828746617422 0.2867616783302419 0  0.1759429608742923 0.4776611759306416 0  -0.3468240303741654 -0.5260416435617549 0  -0.7465808808425306 0.4069574477998361 0  -0.7819962170660292 0.2802441065650652 0  -0.3742623214119594 -0.8547800509641984 0  0.1014498009713561 0.8506721983266377 0  0.4285217620918213 -0.5230190595570253 0  0.4091738370487775 -0.6256346204225141 0  0.78125 0.46875 0  0.90625 0.53125 0  -0.4791801348852565 0.2553992655702126 0  0.7843318610782772 -0.7086046956885941 0  0.8909728264971901 -0.7355183796514634 0  0.7041908166528879 -0.7830649143180282 0  0.7311821352
[...]
<PointData  Scalars="velocity-2"> 
<DataArray  type="Float64"  Name="velocity-2"  format="ascii">0.0000000000000000e+00  0.0000000000000000e+00  1.0000000000000000e+01  1.0000000000000000e+01  5.0275106351961263e+00  1.0000000000000000e+01  5.0277598978109141e+00  0.0000000000000000e+00  5.0277643818541469e+00  0.0000000000000000e+00  2.2447090947036621e+00  2.2448722835364858e+00  0.0000000000000000e+00  1.0000000000000000e+01  7.8065180358691721e+00  1.0000000000000000e+01  7.8063543391607650e+00  7.3815007266800263e+00  2.6724644046777599e+00  3.5784933456680692e+00  7.8058100287067953e+00  2.3153684200147366e+00  5.4585235589657621e+00  1.6388450696985211e+00  8.4049481179993943e+00  8.9114995611933736e+00  1.2484505587050596e+00  3.5784114705238239e+00  5.6463354258398377e+00  8.6423129298362120e+00  1.3975416076414904e+00  7.0132984651353487e+00  1.1737832005387348e+00  6.8336206386988021e+00  5.1481536972376176e+00  3.4711785464169687e+00  7.2202399388718392e+00  3.7318431746291365e+00  6.2976495962970294e+00  8.9632242597099676e+00  4.1761615265925407e+00  8.7837647909047885e+00  1.0690431922508623e+00  0.0000000000000000e+00  1.0000000000000000e+01  8.9633785882339225e+00  1.0957648099533071e+00  2.4431770399066943e+00  7.3279517558783791e+00  6.4774433284521118e+00  3.5780716063654108e+00  1.0694966256665801e+00  8.9636903347620915e+00  0.0000000000000000e+00  0.0000000000000000e+00  1.0000000000000000e+01  3.5785328062288961e+00  1.0000000000000000e+01  0.0000000000000000e+00  6.4771615153953936e+00  1.0000000000000000e+01  2.7380238298328363e+00  5.4098553355175554e+00  4.1073122251704532e+00  1.5091399293488106e+00  2.2802228555827755e+00  2.3806344017274506e+00  8.4739177194570487e+00  7.8878051724937528e+00  5.0141767003561153e+00  5.9063981440415505e+00  6.2034915250214686e+00  4.5284919740614171e+00  6.9088909161295919e-01  7.0546502117473664e-01  1.7841350143707277e+00  2.5162840298981313e+00  9.2296988088143816e+00  9.0972881152948162e+00  7.8515439688444424e+00  5.7604518783595173e+00  7.6969258373507154e-01  4.5700263307739331e+00  7.8482661372160507e+00  6.7104464343443606e+00  7.8657904599411070e+00  8.4051019348611824e+00  9.2439247784330192e+00  2.1465259118519087e+00  5.9746413817190580e-01  7.8442159721203653e-01  9.4219816202724793e+00  3.4727481534279270e+00  9.2791574061531161e+00  8.2103700730435882e+00  9.4655454627107751e+00  4.2947284505333538e+00  5.5150683756468999e-01  9.4681711208261170e+00  1.6388632341689260e+00  6.3867859224672836e+00  6.4514228459958334e+00  6.0393771545190278e+00  6.8899638623749304e+00  1.1619023717414250e+00  0.0000000000000000e+00  1.8472225608773900e+00  8.6253119710407926e+00  7.1629707111783549e+00  1.8936656920139736e+00  0.0000000000000000e+00  6.5386497538031307e-01  3.2204474599591335e+00  3.3556366240807414e+00  4.3961900132106733e+00  4.7306910695350464e+00  8.5014540165176111e+00  7.6272883294026652e+00  7.0353411884723078e+00  1.7265796753642404e+00  3.0654540708906919e+00  8.4053188940680492e+00  4.0903469069868512e+00  5.3012639103788723e+00  1.0000000000000000e+01  2.8466740973425524e+00  2.8789436205854830e+00  1.7451375009289241e+00  5.7607512834460826e+00  6.1996552438568830e+00  6.6575598688190274e+00  3.1431110815758929e+00  7.0069109288791838e+00  7.6744851812267783e+00  6.4120942913350047e+00  4.9993372967012251e+00  6.3408935216752682e-01  5.7446486387298554e+00  2.8821536967367924e+00  3.4388087493095476e+00  5.0557136356080674e+00  4.2946373651191365e+00  4.6748051296043789e+00  9.4900496106536334e+00  9.4049207007570441e+00  9.4900579586222520e+00  4.1496167195331921e+00  6.9643779557779917e+00  9.1380774847653601e-01  8.9190651472154823e+00  5.9522444599540645e+00  1.1618993878008637e+00  2.8922566774730041e+00  8.5123302669193883e+00  4.2681668474621821e+00  5.4660575832990332e+00  8.3570606262462537e+00  8.0758971466892575e+00  7.1624348565388214e+00  7.7196926412224141e+00  9.5061029186959924e+00  4.6796243235946902e+00  5.7668513892096369e+00  9.4654886171295303e+00  3.3484170523721306e+00  5.2689504629591088e-01  0.0000000000000000e+00  1.0000000000000000e+01  9.4902512640518459e+00  5.5296269883600557e-01  1.0917817576042044e+00  1.2253542183031014e+00  2.1157606437087044e+00  2.3846585063885883e+00  7.6728886841091519e+00  5.2702669069132868e-01  0.0000000000000000e+00  8.7120324685000110e+00  2.8967609744919098e+00  3.8791942189403907e+00  1.6720977475623104e+00  2.6318305182499264e+00  4.5292850890253327e+00  5.0499619366141930e+00  9.4895464073092644e+00  2.8919822770042161e+00  1.6387895576737601e+00  1.0000000000000000e+01  4.2946557018830553e+00  1.0000000000000000e+01  1.0000000000000000e+01  1.0000000000000000e+01  8.4054154016246443e+00  5.7607281954697305e+00  1.6385579853025700e+00  0.0000000000000000e+00  0.0000000000000000e+00  0.0000000000000000e+00  0.0000000000000000e+00  1.0000000000000000e+01  1.0000000000000000e+01  8.4398953676651995e+00  4.6499093778471332e+00  5.1908820594680183e-01  9.4772687970411393e+00  1.3526909786459829e+00  2.0644342977431505e+00  1.3822864364176355e+00  1.2587323251505294e+00  5.1517218731441006e-01  2.8336862797638935e+00  8.3399766413685814e+00  7.2393263551731879e+00  9.0088516505806240e+00  7.0691730416194494e+00  1.9056696573629073e+00  8.4110351243583050e+00  6.2111871179991045e+00  8.3464289111312624e+00  7.3030134561220317e+00  1.8027032439487474e+00  8.8663282544076694e+00  7.9158847855714614e+00  2.1941993178144150e+00  7.8583046832473995e+00  2.9708988692695901e+00  6.1749228489408381e+00  1.7155633196435085e+00  2.8603787742663198e+00  3.3303059009285727e+00  7.8361419289653433e+00  4.4825626523557407e+00  9.0276883678380688e+00  9.0188623873796701e+00  3.4848437145927895e+00  7.1005157288786647e+00  3.6690267065301918e+00  4.0235421325265088e+00  5.6159965253098116e+00  6.8222951606005164e+00  9.0939652084571652e+00  7.3406794070820736e+00  4.1005926536270394e+00  4.5199413839373381e-01  6.3857885735220492e+00  5.5076739147886711e+00  5.3002716532775436e+00  2.5623801380192184e+00  3.9148546833603990e+00  6.7590275943544231e+00  3.7795124597218410e+00  8.3211657950116624e+00  5.1540175238619863e+00  8.0395259131088945e+00  7.4962727387233610e+00  2.2792848425462355e+00  6.4859216762113387e+00  1.1618711009539331e+00  3.5048733110731800e-01  8.3846395470048414e+00  2.3211045128874161e+00  6.6765621597898717e+00  4.4399748574172965e-01  7.3170050695871671e+00  5.2705186764785070e+00  6.1959665020252856e+00  5.6547486171532464e+00  2.3438605016576615e+00  5.6633443076911290e+00  3.9081776915963564e+00  4.6145860600443145e+00  1.2754096786531524e+00  1.1529138018575147e+00  7.8908274075969125e+00  7.4142625894610212e+00  1.9387925846282210e+00  1.6318195332684546e+00  6.4473481110972468e+00  6.0556803001324564e+00  3.0437951392513445e+00  1.0843470436217635e+00  9.2812187478992081e-01  2.8963917976668392e+00  5.6233023613345372e+00  7.4428387981754502e+00  7.3425728083884669e+00  9.0972845588711131e+00  9.6184880046394863e+00  2.3501668847415815e+00  9.1105443394534422e+00  9.5558461766035805e+00  8.7630913350673030e+00  8.8815196118627764e+00  3.4465603673456241e-01  3.9191716668523929e-01  9.1853239511501983e-01  3.6701278631903791e+00  8.5103290338920312e-01  4.3114827348482415e-01  3.8195738875276924e-01  7.3756446748040638e-01  7.2990984041858609e-01  9.5630427743135105e+00  3.3706393929463245e+00  1.8445260646957922e+00  7.1809787717911906e+00  4.5786381267233951e+00  5.1596740774961276e+00  4.0502184607242082e+00  9.8738767583819842e-01  6.8297079993547118e+00  5.7372803699789330e+00  2.8324914009608304e+00  3.1397906067156733e+00  3.3022724176567442e-01  8.1109787318681921e+00  9.5737133198006532e+00  9.6203445384628328e+00  9.4916565596155973e+00  2.1000124817944728e+00  2.3855530697194665e+00  1.7806931737699965e+00  6.4248491318521124e+00  8.9442568487615741e+00  3.1482754106168289e+00  6.8715835846914928e+00  6.3857701955461739e+00  4.0924533386879833e+00  7.6735778691498400e+00  3.9829974952301441e+00  1.6247242400211934e+00  8.8957527733711128e+00  3.2309891640942441e+00  9.0924201489692162e+00  7.2909710289857133e-01  9.6214174497548068e+00  2.8178182712794669e-01  2.1718606414307411e+00  8.6061622335277672e+00  8.2959170476304731e+00  8.2365787844989136e+00  4.6602141554977834e+00  9.0310398623766097e-01  2.7463257500476485e-01  9.1843549418220825e+00  9.7351781020493462e+00  3.2563767705613103e+00  6.8244515513906174e+00  7.9446912386556603e+00  7.4891556673784869e+00  9.7351706809291549e+00  9.2297572377656891e+00  6.6694778707944389e+00  5.7841887420210201e+00  2.5640518733825983e+00  1.0390980441113971e+00  8.8298335869681166e-01  1.4479581570300493e+00  9.7349609978573408e+00  2.6325371631329608e-01  2.6364367816088008e-01  9.7351681886455008e+00  9.7339874299508811e+00  5.3956302255738784e+00  3.3870419759481446e-01  9.7336790721841702e+00  8.7880989307132111e+00  8.2076642751901119e+00  5.6931262820975004e+00  6.1188463710042260e+00  8.6887307193096994e+00  7.2175758398817322e+00  6.9789363302260723e+00  5.0378050441028792e+00  5.5262023224595493e+00  2.7464467819752969e-01  1.3539554762740640e+00  8.7586134702170533e+00  3.5898502499058713e+00  4.1449002813289688e+00  2.3742194456429377e+00  4.9965786588495487e+00  6.1222683082202725e+00  2.2104629464296814e+00  3.3701910550887186e+00  2.8911046371744873e+00  3.7364474514787180e+00  8.1864738222174687e+00  7.5083525536847251e+00  9.2699772016049646e+00  5.0621462266501425e+00  2.1811283831757717e+00  8.1570720490209447e-01  3.3210974828157678e+00  8.8888374900950229e+00  9.3310159659263228e+00  3.5055595031611048e-01  3.1110809297298259e-01  8.1280057069884801e+00  8.7290116420207653e+00  3.7592751158056728e+00  8.6727688117873178e+00  4.2896887518481135e+00  6.5495886288517715e+00  8.0254367203994725e+00  2.5965687305166303e+00  1.9920993638142586e+00  4.7542623532048625e+00  4.9645565539978049e+00  4.6471245891310389e+00  5.8596184125257871e+00  1.9817857335283584e+00  1.5560922925196286e+00  1.7205824411439334e+00  1.5832443876805253e+00  2.0222325494000835e+00  1.9364747242950502e+00  4.5849959194294465e+00  5.0100670468728241e+00  3.9383183409652109e+00  7.8152611245131540e+00  6.5037897720982674e+00  1.4538562720225638e+00  1.9934483907024778e+00  8.9531071387514718e+00  4.2298726740371331e+00  7.3631787518725051e+00  8.0163956023110856e+00  7.4787850778863696e+00  2.5635924424010823e+00  6.2754932459880681e+00  3.3027039045200302e+00  3.3282805220831357e+00  5.9437193942599373e+00  5.0767402006680022e+00  5.7331861331544767e+00  6.2259629545733590e+00  4.5593174051425267e+00  2.9085310811451199e+00  2.7267836478009713e+00  9.2630790008543809e+00  9.7443242558515113e+00  6.8484104819975391e+00  3.7030905849222312e-01  4.1514397113995498e+00  7.5711771428065795e+00  3.1718990004421723e+00  9.2898634859366371e+00  2.6127873247547151e+00  6.7562714528931442e+00  3.7181380514694222e+00  2.5122663290294529e+00  9.7125328383742104e+00  4.3418268720060049e-01  5.8955851195541982e+00  8.4037737831123405e+00  9.5055603550740155e+00  2.6256768770931499e-01  9.1245419147096065e+00  3.9334745871175874e+00  3.1187035463640655e+00  1.3849520436451861e+00  3.3121173371315427e-01  6.5585369891993848e+00  8.8417671373269735e-01  1.4553083822495541e+00  1.4856970355447723e+00  5.2308482834874974e+00  5.2407969259152489e+00  8.6893526007697215e+00  8.5760339535086647e+00  6.4768954772308955e+00  1.0000000000000000e+01  2.6328940877911871e+00  8.0818970021174741e-01  8.0477732228695213e+00  3.3900600834307411e+00  2.8895411271478744e+00  4.6171142813625545e+00  1.6059656925170345e+00  1.3501320539969763e+00  8.1760148853251895e+00  8.8345301212613130e+00  2.0522252389918090e+00  1.9613885280005421e+00  6.8244405712993128e+00  2.8103099100177964e+00  5.9843306511494969e+00  2.6541515422685724e+00  4.1840031692492250e+00  3.8218030065870430e+00  4.5774815627067440e+00  1.0000000000000000e+01  9.4365381582109400e+00  7.9622263257554833e+00  7.6142096095265268e+00  6.1677403730347113e-01  8.7025706375969989e+00  8.2317212873877494e+00  6.7170942570198999e+00  4.8692357210903658e+00  1.3496768992839101e+00  9.7308773331729022e+00  4.0335262954952880e+00  3.6194590174963266e+00  1.2135977655775889e+00  7.8806966012883561e-01  7.5314292832352319e+00  8.3718987066819146e+00  3.8599050719086323e+00  5.2336884246421542e+00  5.9827234070443387e+00  6.0508751360645734e+00  5.7220754546492483e+00  1.6109537991528091e+00  8.2114004099435789e+00  0.0000000000000000e+00  1.4932966588508350e+00  1.8333095160991291e+00  4.4020606417568242e+00  2.6311826789012285e+00  3.1411373431204366e+00  9.3376161379314624e+00  7.3510439097369300e+00  7.6034445799630381e+00  4.5453825480768906e+00  2.9738344609808398e-01  8.6670452971278547e+00  4.2867670636162405e+00  4.8926280848697292e+00  4.9239631975186029e+00  1.0000000000000000e+01  8.5256581997006577e+00  8.1484223343342812e+00  8.6004048811584237e+00  3.0032007327969499e+00  9.7460999128987691e+00  9.3604399678183245e+00  9.7042080728277327e+00  0.0000000000000000e+00  9.7461883058091541e+00  4.3305962090244376e+00  1.0272462896660581e+00  1.3477525525792247e+00  6.8574549438027814e+00  6.8806177438660345e+00  7.1395727837023664e+00  7.0477616162263068e+00  9.7186043953542693e+00  9.2437372449552058e+00  6.0503487816169788e+00  5.5603680385931868e+00  6.5918418058621764e-01  3.7204737216728399e+00  5.4644019124392091e+00  3.4928203750210223e+00  2.3373813916709847e+00  9.6422200123486435e-01  1.4190816758654372e+00  9.3161101186465722e-01  3.1870937348588626e+00  8.6972197619416463e+00  1.6916512406016446e+00  7.3483954393636903e+00  0.0000000000000000e+00  2.0308577909845029e+00  9.7261962443369736e+00  5.1942462830559455e-01  7.0860922036179721e+00  5.3397135507635554e+00  2.9338430610488242e+00  6.2649980226936908e+00  5.3617773808503353e+00  4.6752938863828613e+00  5.0256548561944490e+00  7.5632870604672169e+00  9.7340149936806970e+00  8.3862357267653653e-01  9.1956039904723514e+00  5.4378597314724182e+00  9.7403755156868659e+00  5.9092686164370054e+00  7.0125232998558520e+00  5.0554434217254087e+00  1.9024634352047229e+00  4.4944742945009688e+00  1.0000000000000000e+01  5.4804435994739995e+00  9.4738755651592987e-01  6.7591086196906733e+00  1.1964885438199389e+00  4.2878763652845198e+00  9.1886193180912041e+00  7.8077713412968084e+00  1.0593329281471047e+00  9.6815519648050463e-01  3.1043301723187593e+00  7.9002940344434769e-01  1.8892516033290208e+00  2.2600976395745063e+00  2.0591715764981262e+00  2.5105201631807117e+00  2.4012064170510756e+00  9.7339527773061469e+00  1.0000000000000000e+01  1.1819938467086457e+00  5.4945542243424308e+00  8.4116143358397917e+00  7.7089003576024808e+00  7.4099524648560635e+00  8.0028777094890096e+00  9.3822914301445248e+00  3.9332231121001482e+00  8.9921423870827883e+00  3.6374021939292036e+00  3.9216831749161210e+00  6.4870958988450287e+00  9.2879969921403571e+00  5.8387082814190645e+00  2.9471202998754058e+00  8.5707842274472963e+00  4.2703812633170717e+00  6.0195307707299914e+00  8.6049317326922292e+00  8.4823391415839335e+00  5.3956748688797438e+00  0.0000000000000000e+00  9.3029456942406057e+00  0.0000000000000000e+00  8.3908351892515984e+00  4.6611097174423639e+00  2.5708122326386080e+00  2.5935370060160214e+00  2.6382521775511836e+00  7.0507404707736043e+00  4.2155585366353474e+00  8.1113222389912920e+00  1.1179820288855726e+00  3.8032491053053010e+00  8.7980652195435542e+00  7.8888795631252400e+00  1.1617017055140360e+00  4.2308224289214236e+00  4.2894922661990726e+00  5.3352045822674246e+00  9.0938606259403141e+00  8.1789755434553530e+00  7.1645970587197070e+00  6.5836493465076984e+00  8.7449110192957917e+00  9.4789755530211757e+00  9.7460165012309741e+00  7.8017071938429385e+00  6.3411472933401991e-01  5.0279274425915608e+00  2.8865293175678525e-01  5.7584448254673042e+00  9.7459868512380972e+00  1.0000000000000000e+01  1.0000000000000000e+01  9.2297206427923175e+00  3.2309185811257870e+00  8.6894294307998923e+00  0.0000000000000000e+00  2.6266559707386949e-01  5.3955117946973505e+00  0.0000000000000000e+00  1.0000000000000000e+01  2.5633902205738486e+00  9.2299346554116077e+00  1.0000000000000000e+01  7.4901954431928637e+00  6.8249261943048181e+00  1.0000000000000000e+01  1.0000000000000000e+01  1.0000000000000000e+01  0.0000000000000000e+00  0.0000000000000000e+00  0.0000000000000000e+00  4.6600644411510190e+00  0.0000000000000000e+00  3.2306181252746557e+00  8.1113127018173259e+00  0.0000000000000000e+00  7.9544006692384051e-01  7.9513702996453184e-01  0.0000000000000000e+00  1.9368253973839016e+00  6.1225042089587118e+00  0.0000000000000000e+00  7.4896448217004661e+00  1.0000000000000000e+01  1.0000000000000000e+01  9.7461573053832264e+00  0.0000000000000000e+00  6.1226568333111580e+00  0.0000000000000000e+00  4.6602034804905106e+00  1.0000000000000000e+01  1.0000000000000000e+01  2.0853091535933777e+00  7.8934511065239796e+00  2.2813866389821139e-01  6.4147026276611223e+00  6.0053990796361107e+00  8.2995871952322400e+00  3.7510296187658403e+00  1.9488017347054936e+00  2.1851316188844825e+00  1.7269286413940013e+00  9.1851139347581903e+00  1.4931064870158408e+00  2.4766281939443557e-01  1.2614237728218167e+00  8.8260076858016987e+00  5.3489539352757620e-01  6.6800197170800280e-01  2.5819935232428298e-01  5.3869667278427846e-01  3.9452386475455975e-01  5.9389424658230627e-01  5.5184951686153205e-01  9.2111149166072970e+00  8.9183934091100880e+00  2.0761039043996949e+00  5.7965618878085916e+00  9.7196284491248299e+00  7.8158427128950769e-01  6.6766083868885477e+00  4.1284460494159765e+00  1.1936773936061089e+00  3.7863644756723436e+00  2.6577730881197956e+00  3.4074396305420205e+00  7.9722170945832334e+00  9.3415259599745486e+00  1.8867464072563709e+00  9.0546381866737935e+00  8.8112676488559938e+00  7.0419686888154551e+00  3.2580782363077359e+00  4.8053362906688744e+00  7.3061547659252559e+00  2.3861193077010507e+00  5.5050522277072531e+00  9.1862187900005345e+00  2.6354060084610524e+00  6.5098440621432339e+00  8.5350546526556901e+00  8.0518086516391900e+00  8.4825103921577174e+00  2.5312099710672664e-01  2.3612082089623185e+00  2.0623850922420837e+00  1.7867032187035394e+00  1.1392757084863789e+00  1.4584624631378211e+00  4.0096690549875502e+00  5.3035890693286278e+00  4.8793586336230170e+00  8.0863778287165147e+00  9.4929227147845410e+00  9.3077445606564488e+00  7.7690671712929813e+00  7.5951370352243828e+00  3.8343947766988804e+00  5.3385098284418175e+00  1.0392900941918259e+00  1.2059541946772516e+00  1.6235662989429340e+00  1.4471048721560931e+00  1.7625480179722175e+00  1.6665843088045134e+00  1.5112389050976913e+00  6.6383797131154569e+00  6.5510207512983039e+00  3.7135945969273711e+00  6.0877837024624259e+00  9.1566701628558214e+00  3.1621212865590085e+00  2.6866113323424727e+00  9.7741190660801518e+00  8.8221182182488107e+00  8.9794507551667824e+00  5.5503757021193518e+00  7.7564046119327079e-01  6.7143345059309372e+00  4.8490639186822078e+00  3.1097071271707004e+00  7.2851575568656788e+00  8.1348917792137314e+00  1.5392074099344617e+00  8.6744986824020973e+00  8.4515238302044100e+00  8.0779139301470941e+00  9.7363405557578524e+00  8.9698940688290989e+00  9.0646793035226931e+00  9.3181221384760438e+00  8.7228548553056608e+00  2.8755606629909867e+00  9.7422773185288924e-01  1.4440715636704455e+00  9.7447771229502518e+00  2.9767668411580699e+00  1.4560563195853409e+00  6.7511172581204528e+00  7.3369262042437446e+00  4.4020221028105375e+00  3.4620151233100036e+00  4.7549205590234749e+00  1.9934087207940596e+00  2.1233804645223158e+00  1.9186716526375360e+00  2.0945575094726782e-01  2.8064262210979782e+00  8.4745853444941144e+00  8.1316201352749466e+00  1.2359758723435912e+00  9.3702540536121095e+00  8.1788301070850320e+00  8.7369120871677826e+00  7.6634272906212395e+00  6.4912512557554765e+00  1.4906701547789012e+00  1.2657909275322399e+00  9.9409549340607628e-01  1.0708036036229798e+00  6.1231074129889436e+00  8.03036