<?xml version="1.0"?>
<VTKFile type="UnstructuredGrid"  version="0.1"  >
<UnstructuredGrid>
<Piece  NumberOfPoints="2513" NumberOfCells="4852">
<Points>
<DataArray  type="Float64"  NumberOfComponents="3"  format="ascii">-1 1 0  -1 -1 0  1 -1 0  1 1 0  0 -1 0  1 0 0  0 1 0  -1 0 0  0 0 0  -1 -0.5 0  -0.5 -1 0  -0.5 1 0  -1 0.5 0  1 -0.5 0  0.5 -1 0  1 0.5 0  0.5 1 0  0.4166666666666666 -0.4166666666666667 0  -0.4166666666666667 0.4166666666666667 0  -0.25 -0.5 0  0.5 0.25 0  -0.4861111111111112 -0.06944444444444445 0  0.0732758620689655 0.507183908045977 0  -0.625 -0.625 0  0.625 0.625 0  0.7380952380952381 -0.25 0  -0.7099116161616161 0.2105429292929293 0  -0.25 0.7380952380952381 0  0.105392156862745 -0.6348039215686275 0  0.6770833333333334 -0.6770833333333333 0  -0.6770833333333334 0.6770833333333334 0  0.3472222222222222 -0.06944444444444446 0  -0.7264957264957265 -0.3044871794871795 0  0.3141940982507127 0.7297313660835709 0  0.02049587951122483 -0.3227479397556124 0  -0.2690972222222223 0.1475694444444444 0  0.3859500089908372 -0.7274430156831472 0  -0.2228477945123298 -0.1761765495248019 0  0.2182539682539683 0.1884920634920635 0  0.75 0.375 0  -0.145442219440968 -0.7602211097204841 0  0.7088913690476191 0.0427827380952381 0  -0.75 -1 0  -1 -0.75 0  1 0.75 0  0.75 1 0  -0.7439982703698937 -0.04614153195464455 0  -0.4609235096577606 -0.3356498099556895 0  0.4063134471431929 0.4895621842856023 0  0.25 -1 0  -0.25 -1 0  -0.75 1 0  0.75 -1 0  -1 -0.25 0  -1 0.25 0  1 -0.25 0  -0.25 1 0  1 -0.75 0  -1 0.75 0  0.25 1 0  1 0.25 0  -0.4041423272138783 -0.7597141090712928 0  0.06500839607911253 0.7578103030529481 0  -0.1572801182352047 0.3838997021864289 0  -0.6528005242053915 0.4409494757946086 0  -0.4930160984848485 0.1544744318181818 0  -0.4732142857142858 0.7752976190476191 0  0.6398809523809523 -0.4538690476190476 0  0.5166054117396399 -0.2161233620965164 0  -0.002273787244753427 0.2232363985975174 0  0.1500564496765022 -0.1524955293952667 0  0.2016720420046758 -0.4410343282803009 0  -0.08495178036419618 0.6274139771124571 0  -0.8367311471133162 0.3642591720794645 0  -0.8333333333333334 -0.625 0  -0.594323836800685 -0.8231079456002283 0  -0.4466957714776065 -0.5349126855671806 0  0.8125 0.5625 0  0.78125 0.78125 0  0.5091392650016769 0.7947130883338923 0  0.125 -0.8382681931833136 0  -0.8184523809523809 -0.8184523809523809 0  -0.07781530426104531 -0.5819319697006881 0  0.5085055196703295 0.04967610411902112 0  0.2918471072074933 -0.276017202318847 0  0.5120763537765269 -0.5898771553229597 0  0.625 -0.8585349462365591 0  0.8158532234335381 -0.8158532234335381 0  -0.5198088446315396 0.5739411553684605 0  -0.8585349462365591 0.625 0  -0.8150493805516597 0.8156205699829586 0  0.8585349462365591 -0.625 0  -0.2688268348649726 0.5439331383603209 0  0.8242100426758139 -0.4436043596336612 0  0.5833756314287952 0.4479378157143976 0  0.8690476190476191 -0.125 0  -0.125 0.8690476190476191 0  -0.8692745600729823 0.125 0  0.8696725120759167 0.125 0  -0.625 0.8711516477451908 0  0.2339522463269718 0.3879558377955778 0  0.2453709502295031 0.5655822922838026 0  0.1730610651637797 0.02021709580868947 0  0.3245402594056757 -0.5644672020485209 0  -0.7291666666666666 -0.4816595441595442 0  -1 -0.375 0  -0.5811140848639904 -0.2127276307675001 0  0.673332592838314 0.2158348143233718 0  0.375 1 0  -0.5714768890989919 0.2985103444040069 0  -1 -0.125 0  -0.8453692574786325 -0.1875 0  -0.3144549134065865 -0.02408675326008025 0  -0.2898414972096258 -0.3336092734780093 0  -0.1075052092206287 -0.4224330421314983 0  -0.05043970703604117 -0.1652278959397459 0  0.6459672950297897 -0.1113415301525317 0  0.4645210271029513 0.6398480556579343 0  0.3512863754411909 0.0937979496253573 0  -0.6063160985568274 0.03891469652249891 0  -0.3428819444444445 0.8690476190476191 0  0.625 1 0  -0.1602164796159982 0.02697860906625157 0  0.04648110064133829 -0.4808416424239687 0  1 0.875 0  -0.3836102479201657 0.6484936449177356 0  -0.3776011723096096 0.263078478984336 0  -0.6024978259969829 -0.3949628096211138 0  0.125 1 0  0.2010781308272777 0.8456221018461906 0  0.2822509696388829 -0.845902544691141 0  -0.3285533674953515 -0.6289773550938936 0  0.3461306793221754 0.278777492464833 0  0.4737475672408696 -0.8508448959534423 0  0.2384632828836344 -0.7029523187242811 0  -0.004777287059791593 0.3759269695907358 0  -0.8499735021850066 -0.3912320205328522 0  0.1222536293721587 0.2963971539625205 0  -0.3769456520999688 -0.203572526805711 0  -0.2749617205755651 -0.8464290792698902 0  0.004805888512766143 -0.747174355248311 0  -0.125 -1 0  -0.06001061822252458 -0.8724007765244854 0  0.875 0.4375 0  0.854421179608893 0.271342359217786 0  0.875 1 0  -0.1499861095763589 0.2358309656934888 0  0.3381943639137225 0.8663061796405532 0  -0.7853090110442228 0.4998412775277108 0  0.7398165998560814 -0.5535192694951373 0  0.1580042122341573 -0.3100246140259917 0  -0.7291666666666667 -0.7142857142857142 0  -0.375 -1 0  0.6483368386154684 0.8514905990110488 0  -0.1295370103291928 -0.2826118305021242 0  0.07458201853700455 0.1123894386563915 0  0.6146465857036327 -0.3161203659316075 0  0.5551898493894731 -0.740296118159085 0  0.375 -1 0  0.482702798370208 -0.084133350091034 0  0.87890625 0.68359375 0  -0.05917195534525846 0.4971092425697621 0  0.1260710309213975 0.6343750312956699 0  0.8690476190476191 -0.3077066815262848 0  -0.2912010232560567 0.3668168386732139 0  -0.875 1 0  -1 0.875 0  1 -0.875 0  0.875 -1 0  -0.8689564281364567 -0.006189266075306407 0  -0.7449425635110547 0.08458938160051771 0  -0.7150266761936593 -0.1739444581417552 0  -0.5260034831318311 -0.711099823962112 0  -0.4724626808827322 -0.871722230709409 0  0.4734436795977052 0.377714794132168 0  -0.875 -1 0  -1 -0.875 0  0.6927189078571988 0.5156567235715964 0  -0.3742497615796874 -0.4296005251260107 0  -0.1969436423297711 -0.6387157229772615 0  -0.6179496409766825 -0.08933356056510935 0  -0.424405057115988 0.04452428810878029 0  -0.08479048335844169 0.1279607007132633 0  0.003830300099055113 0.8712085230656206 0  0.8748778838820267 -1.379218479898026e-05 0  -0.375 1 0  -0.625 1 0  1 0.125 0  -0.125 1 0  1 -0.375 0  1 -0.125 0  1 -0.625 0  0.625 -1 0  0.125 -1 0  -0.625 -1 0  -1 -0.625 0  -1 0.125 0  -1 0.375 0  -1 0.625 0  1 0.375 0  1 0.625 0  0.6325660748712082 0.3335187599557389 0  -0.06420945895056573 0.7549874027425891 0  -0.8769015540914771 0.2478802253893416 0  0.871875 0.871875 0  -0.6868091492840067 0.3270978624973681 0  -0.5363597469565949 0.412994850055505 0  -0.6803734992638302 0.5574295000651103 0  -0.7076253581162534 -0.8803439094224437 0  -0.8778089002295137 -0.5106896447504627 0  -0.3860184984222981 0.530566778071246 0  0.6109900617121508 0.1128453077697081 0  0.3896945134930274 -0.1915382873255086 0  0.7605656944697778 -0.06822134873122943 0  0.3576151269893478 0.5948388411612135 0  -0.5689902680792265 -0.5143596830118065 0  0.6262446286847614 -0.5735657901943212 0  0.2030558252325225 -0.5625263842513452 0  0.6123273142928579 0.7407533260723429 0  0.4016460890123554 -0.3042863223111857 0  -0.59039693199147 0.7578418819188018 0  0.7276932493917544 -0.3705808024528924 0  0.5222536818742854 -0.4713886230400014 0  -0.5101986527137737 0.8848365765607674 0  0.510560172809238 0.5356013299918891 0  -0.3603569195756083 0.75823710606415 0  0.1967279277813232 0.728226870058472 0  -0.6086880986371127 0.1545624071548516 0  -0.38105366729386 0.1511189987807864 0  -0.2944659463671584 -0.7359061804869591 0  0.5060729154966499 -0.3475227845833823 0  -0.09281616240412746 -0.06197858250969457 0  0.7649739583333334 0.6673177083333334 0  0.7628906249999999 0.890234375 0  -0.2666864184909611 0.2585504071132311 0  0.3635064892129658 0.3878003602709461 0  -0.2339409722222222 0.8901937905844155 0  -0.1718792125974916 -0.8957733325456778 0  0.1001768566329531 0.4023510017391879 0  0.3120260172693757 -0.4540546875576884 0  0.7804062804433681 0.1896628610854537 0  0.4087715451998049 0.187961780041608 0  -0.1584963477271457 0.5451611892421655 0  -0.8926817849258324 0.463022006336401 0  0.2338091473445219 -0.07576267331277289 0  0.08171112182813692 -0.2349087687359925 0  0.04635385178956847 -0.1044635073718474 0  -0.4377391632114205 -0.6448874471423088 0  -0.1907678351227189 0.6480215912813945 0  0.300605946475244 0.4741444604171038 0  -0.2145033720757486 -0.06751709909419711 0  0.6069191921170397 -0.005492331448357812 0  0.0214718770761248 0.6032397936031719 0  0.5476675683364878 0.8992752415326501 0  0.4387475014316537 0.9093708953002239 0  -0.4932997685306436 -0.4381009159993523 0  0.2515197695339056 -0.1791673369138964 0  -0.7291666666666667 -0.6088789682539681 0  -0.9166666666666667 -0.6875 0  0.620579540363709 -0.2122431523583302 0  -0.484950136419973 0.6719440339397442 0  0.2857044415400258 0.0137589173127316 0  -0.8945708364098356 -0.288306105327986 0  0.4043102720140535 0.7842914560451557 0  0.04123256238752064 -0.9026968245801402 0  0.2003676884403109 -0.9091888601740487 0  0.1068775558538842 -0.7373377130403223 0  -0.4804566783514427 -0.1763307203045643 0  0.108286342087769 -0.3993789328997278 0  -0.191883080105361 -0.3640821726430649 0  -0.07025064492006244 0.2984876656890053 0  -0.7039324641409584 0.788312126296613 0  -0.7311286585775438 0.8932502354831682 0  0.5171409396884947 0.1503852691889257 0  0.4229392823658633 -0.003216522184234835 0  -0.5621736087218259 -0.919558629836806 0  -0.626474064879544 -0.7266572613636506 0  0.2446828746617422 0.2867616783302419 0  0.1759429608742923 0.4776611759306416 0  -0.3468240303741654 -0.5260416435617549 0  -0.7465808808425306 0.4069574477998361 0  -0.7819962170660292 0.2802441065650652 0  -0.3742623214119594 -0.8547800509641984 0  0.1014498009713561 0.8506721983266377 0  0.4285217620918213 -0.5230190595570253 0  0.4091738370487775 -0.6256346204225141 0  0.78125 0.46875 0  0.90625 0.53125 0  -0.4791801348852565 0.2553992655702126 0  0.7843318610782772 -0.7086046956885941 0  0.8909728264971901 -0.7355183796514634 0  0.7041908166528879 -0.7830649143180282 0  0.7311821352
[...]
<PointData  Scalars="velocity-2"> 
<DataArray  type="Float64"  Name="velocity-2"  format="ascii">0.0000000000000000e+00  0.0000000000000000e+00  1.0000000000000000e+01  1.0000000000000000e+01  5.0697008601691316e+00  1.0000000000000000e+01  5.0697118621146160e+00  0.0000000000000000e+00  5.0696829708273370e+00  0.0000000000000000e+00  2.5485221598134316e+00  2.5485239749305646e+00  0.0000000000000000e+00  1.0000000000000000e+01  7.5500683762255010e+00  1.0000000000000000e+01  7.5500568724664028e+00  7.1393559005901155e+00  2.9712022980444375e+00  3.8138385533806645e+00  7.5500386946681433e+00  2.6190051259263245e+00  5.4357783339421601e+00  1.9130073348332315e+00  8.1644251917000421e+00  8.7189002617793996e+00  1.4804918726215588e+00  3.8138441803028771e+00  5.5959448790804327e+00  8.4199152222412206e+00  1.6477779591042712e+00  6.7963777997033530e+00  1.3959724160905675e+00  6.6329767679282750e+00  5.1721907428069258e+00  3.7175076459920824e+00  6.9877496614769292e+00  3.9507265356061048e+00  6.1573902123065993e+00  8.7772110784282305e+00  4.3403079268075491e+00  8.5758258961939511e+00  1.2761258265667434e+00  0.0000000000000000e+00  1.0000000000000000e+01  8.7772137090693896e+00  1.3067270907115114e+00  2.7468311451145664e+00  7.0882619478365871e+00  6.3149555838511953e+00  3.8138663606692069e+00  1.2761085983152243e+00  8.7772251568842190e+00  0.0000000000000000e+00  0.0000000000000000e+00  1.0000000000000000e+01  3.8138303379073815e+00  1.0000000000000000e+01  0.0000000000000000e+00  6.3149424776736334e+00  1.0000000000000000e+01  3.0346631580747156e+00  5.3945318783069780e+00  4.2808223550341324e+00  1.7714638079761074e+00  2.5839676829727170e+00  2.6844591934335926e+00  8.2374607990431628e+00  7.6317659214656786e+00  5.0583121468239520e+00  5.8184096226316102e+00  6.0750474660872982e+00  4.6441082913599443e+00  8.3364312383565009e-01  8.5099014559528185e-01  2.0691023499050707e+00  2.8189899311168527e+00  9.0831525616660951e+00  8.9302069824194739e+00  7.5950355253801618e+00  5.6936468075031987e+00  9.2692950636043903e-01  4.6799073603229147e+00  7.5919232998533950e+00  6.5223293757654410e+00  7.6094866807500958e+00  8.1644147468316248e+00  9.0995634722197440e+00  2.4479070473685667e+00  7.2235090818642222e-01  9.4429094682254011e-01  9.3083592172478706e+00  3.7188704235817829e+00  9.1404536812789061e+00  7.9600330195078994e+00  9.3597753551608740e+00  4.4430612019223146e+00  6.6753047374380992e-01  9.3628339774757610e+00  1.9129993344490417e+00  6.2353101608017569e+00  6.2919760387173875e+00  5.9328323734339552e+00  6.6841891467222849e+00  1.3823441116262258e+00  0.0000000000000000e+00  2.1363044984000155e+00  8.4015265107394974e+00  6.9336771935531090e+00  2.1853052137517848e+00  0.0000000000000000e+00  7.8955389428219547e-01  3.4884343626111480e+00  3.6127981531555018e+00  4.5309385050531175e+00  4.8171562139887500e+00  8.2672997356299476e+00  7.3753079056461699e+00  6.8164625593374080e+00  2.0081054693929010e+00  3.3447294757483585e+00  8.1644299654952306e+00  4.2660448059094787e+00  5.3020219729023168e+00  1.0000000000000000e+01  3.1386446263589289e+00  3.1690506865651855e+00  2.0275169545944451e+00  5.6936816719771066e+00  6.0720812416453596e+00  6.4748095185874668e+00  3.4171903560392520e+00  6.7909662031692513e+00  7.4207667663117833e+00  6.2576914359265707e+00  5.0457981161217740e+00  7.6605265981123782e-01  5.6799565405492478e+00  3.1723827087747161e+00  3.6878872690822675e+00  5.0937504867284584e+00  4.4430620474061087e+00  4.7691785164375764e+00  9.3888893948954877e+00  9.2882392121578796e+00  9.3888853660933265e+00  4.3174885701710952e+00  6.7517247425719997e+00  1.0960371659128698e+00  8.7273274068561335e+00  5.8579357835613539e+00  1.3823511091336629e+00  3.1822482813277166e+00  8.2789323300273114e+00  4.4202674378851778e+00  5.4422834612423445e+00  8.1136146099562598e+00  7.8215346110977313e+00  6.9336786790477740e+00  7.4648804600589322e+00  9.4079889038385858e+00  4.7733719038351676e+00  5.6989900492046477e+00  9.3597805753301522e+00  3.6059128427688951e+00  6.3830669781969529e-01  0.0000000000000000e+00  1.0000000000000000e+01  9.3888903713493885e+00  6.6915131216753410e-01  1.3019015622789076e+00  1.4544270735184823e+00  2.4164411024608734e+00  2.6882657817242550e+00  7.4192692203059387e+00  6.3830546134930344e-01  0.0000000000000000e+00  8.4965654777418695e+00  3.1860185777754699e+00  4.0812270968818556e+00  1.9488843866738346e+00  2.9319961326297914e+00  4.6449206990587735e+00  5.0888485966867698e+00  9.3882920826414491e+00  3.1822648004638436e+00  1.9130005992827404e+00  1.0000000000000000e+01  4.4430580254034435e+00  1.0000000000000000e+01  1.0000000000000000e+01  1.0000000000000000e+01  8.1644276079382294e+00  5.6936812079297567e+00  1.9130133436211667e+00  0.0000000000000000e+00  0.0000000000000000e+00  0.0000000000000000e+00  0.0000000000000000e+00  1.0000000000000000e+01  1.0000000000000000e+01  8.2015531034435263e+00  4.7481383740191188e+00  6.2858929637366689e-01  9.3736071948865725e+00  1.5982388869724704e+00  2.3638343313208163e+00  1.6310219900911216e+00  1.4921515559088352e+00  6.2396219696775079e-01  3.1264626927992505e+00  8.0956437385975555e+00  7.0062321926484197e+00  8.8289449471770816e+00  6.8477306083089147e+00  2.1979553767663793e+00  8.1705326443098389e+00  6.0819201926061011e+00  8.1022061898902660e+00  7.0652415826141981e+00  2.0890845044821362e+00  8.6679503754159875e+00  7.6595454967672270e+00  2.4967230164627994e+00  7.6020148928895468e+00  3.2563439957708207e+00  6.0504611823644820e+00  1.9960287480937859e+00  3.1515817668408181e+00  3.5894284667443901e+00  7.5799447827660291e+00  4.6046338082372387e+00  8.8505284220671836e+00  8.8403250287707689e+00  3.7296618815069209e+00  6.8768513507871054e+00  3.8948099362147857e+00  4.2073493782427303e+00  5.5699469426940409e+00  6.6222462074758841e+00  8.9260801730210808e+00  7.1003971392536753e+00  4.2746827415568047e+00  5.4802912382591629e-01  6.2346083073877088e+00  5.4778680700866031e+00  5.3013906436546199e+00  2.8644083360453396e+00  4.1123045247336671e+00  6.5657135054169800e+00  3.9927627502451233e+00  8.0756574766189928e+00  5.1770793419940802e+00  7.7845376347149333e+00  7.2482700452770343e+00  2.5825062313322751e+00  6.3224581503257742e+00  1.3823539841363439e+00  4.2556351210800747e-01  8.1427313990033952e+00  2.6249079908374844e+00  6.4919176348829559e+00  5.3838576510931913e-01  7.0783847361854555e+00  5.2757943238586797e+00  6.0685679907981704e+00  5.6033700130373170e+00  2.6477082078758754e+00  5.6103755882235617e+00  4.1067045551013059e+00  4.7178359235694165e+00  1.5109699331017283e+00  1.3723487591745207e+00  7.6343988747903584e+00  7.1703108360866779e+00  2.2326060237136240e+00  1.9055102829021793e+00  6.2885640512393390e+00  5.9471530742543592e+00  3.3248105312157934e+00  1.2935575031306388e+00  1.1129359705920405e+00  3.1859718561031980e+00  5.5763057655876267e+00  7.1978436736584186e+00  7.1023949322015527e+00  8.9302085165305343e+00  9.5416981111225319e+00  2.6541946189710157e+00  8.9452982197642044e+00  9.4669937095291221e+00  8.5527842807807364e+00  8.6850380544474852e+00  4.1845520682694914e-01  4.7562537520157916e-01  1.1014239238562922e+00  3.8960412676403218e+00  1.0225535602040299e+00  5.2272961410001695e-01  4.6355544944096561e-01  8.8895618644647234e-01  8.7983932076450211e-01  9.4755999346998774e+00  3.6261857584457760e+00  2.1336161827524460e+00  6.9513800561113799e+00  4.6873636533908689e+00  5.1820829473470056e+00  4.2310699240715302e+00  1.1816365313252903e+00  6.6295210221927716e+00  5.6733577191250220e+00  3.1250343912489456e+00  3.4143187027925821e+00  4.0101589278256095e-01  7.8574479374605630e+00  9.4883036685753765e+00  9.5439462259569172e+00  9.3907995673044589e+00  2.4000083667129584e+00  2.6894934333442642e+00  2.0656873013296826e+00  6.2689423412888621e+00  8.7553393807803577e+00  3.4222667387199990e+00  6.6672597277201842e+00  6.2345635950453051e+00  4.2676636107201569e+00  7.4200723979967638e+00  4.1721523929080604e+00  1.8981176683593453e+00  8.7008250608344007e+00  3.4983230104306426e+00  8.9245974010475386e+00  8.7893894092190816e-01  9.5452792406633318e+00  3.4231669483364741e-01  2.4739520184585730e+00  8.3808482651723075e+00  8.0492283158743927e+00  7.9871321553933612e+00  4.7566970816994782e+00  1.0835622013084885e+00  3.3380307900088441e-01  9.0304329970077823e+00  9.6814559213088707e+00  3.5216895814872129e+00  6.6245739976819440e+00  7.6884608978138580e+00  7.2421198933849436e+00  9.6813233629564035e+00  9.0831594682276595e+00  6.4855502907403890e+00  5.7140065035033034e+00  2.8656010481444989e+00  1.2415626447431403e+00  1.0601590055714585e+00  1.7042960743878532e+00  9.6810759038889653e+00  3.1991515381432312e-01  3.2028008489538812e-01  9.6814558646751809e+00  9.6799303777646024e+00  5.3819884338827730e+00  4.1122950384336809e-01  9.6795640700908621e+00  8.5805875065258341e+00  7.9568705143668712e+00  5.6358125133102197e+00  6.0022078656594653e+00  8.4709776684085760e+00  6.9851918993190338e+00  6.7648774221553651e+00  5.0787085933760112e+00  5.4934356021702104e+00  3.3379983857038403e-01  1.5993966699390298e+00  8.5479272582685137e+00  3.8240305538367720e+00  4.3132702678104078e+00  2.6784085419878281e+00  5.0436723375234829e+00  6.0045941163784624e+00  2.5132013988524107e+00  3.6256763487980517e+00  3.1808342056592731e+00  3.9551985631271540e+00  7.9352613675270582e+00  7.2599406840843459e+00  9.1300579657305736e+00  5.0992100780625620e+00  2.4831756456780925e+00  9.8116867507009997e-01  3.5808427804809515e+00  8.6932671900044340e+00  9.2014560015159628e+00  4.2556203745676768e-01  3.7792684190285142e-01  7.8746827199075335e+00  8.5151070597418261e+00  3.9751300535180594e+00  8.4535590193915926e+00  4.4389296276699586e+00  6.3788476698042125e+00  7.7702405489660826e+00  2.8976815481059712e+00  2.2884507713360374e+00  4.8372949295440639e+00  5.0162614327971813e+00  4.7456338992817484e+00  5.7786920708630811e+00  2.2776258337051978e+00  1.8224885317661468e+00  2.0009540575893712e+00  1.8525951300033092e+00  2.3200434895793607e+00  2.2309711936210737e+00  4.6926526364366685e+00  5.0547710542894997e+00  4.1330262609460711e+00  7.5593793775676463e+00  6.3384545662371830e+00  1.7105316108356192e+00  2.2899547871591026e+00  8.7656958945134438e+00  4.3870869582900536e+00  7.1216891007940024e+00  7.7610381937135449e+00  7.2318587670812198e+00  2.8656264871390498e+00  6.1380775586785488e+00  3.5640562636248925e+00  3.5874189311312281e+00  5.8507413965987549e+00  5.1112681722463700e+00  5.6699934989010661e+00  6.0947425814102507e+00  4.6708359799953891e+00  3.1974072110956486e+00  3.0239951979321154e+00  9.1219950125811309e+00  9.6923548594116653e+00  6.6464419568215458e+00  4.4949307007464084e-01  4.3191398755254067e+00  7.3205296776487918e+00  3.4435570512724012e+00  9.1532187800663500e+00  2.9136314641034233e+00  6.5630435379777001e+00  3.9384894043650513e+00  2.8152809911977599e+00  9.6542319577080189e+00  5.2653974003440995e-01  5.8094416328491674e+00  8.1630780511759866e+00  9.4071259479348726e+00  3.1918170141937291e-01  8.9614746024595764e+00  4.1287545897973024e+00  3.3942483034723985e+00  1.6339819997227385e+00  4.0225673225426711e-01  6.3871690028879016e+00  1.0615163667955336e+00  1.7119457848833133e+00  1.7453187526643639e+00  5.2424255937369519e+00  5.2509000480105339e+00  8.4710028709285616e+00  8.3477404927878691e+00  6.3147189445097487e+00  1.0000000000000000e+01  2.9327739274436775e+00  9.7218470982350624e-01  7.7929250965639350e+00  3.6440675248788046e+00  3.1794211577387252e+00  4.7201864462838818e+00  1.8772903765739506e+00  1.5946936377951928e+00  7.9246420809608411e+00  8.6323761944612496e+00  2.3509592708101095e+00  2.2563959145987269e+00  6.6246097199024314e+00  3.1040685918017075e+00  5.8855371008495609e+00  2.9537328009520931e+00  4.3473303599384394e+00  4.0305164186954734e+00  4.6861798900714993e+00  1.0000000000000000e+01  9.3255348377908476e+00  7.7063347899014687e+00  7.3621385611325678e+00  7.4547188448375745e-01  8.4861780615268021e+00  7.9823063086933486e+00  6.5285038772279629e+00  4.9350448529431210e+00  1.5947120603661820e+00  9.6761343648119045e+00  4.2163490319516113e+00  3.8505132812952212e+00  1.4409921389771867e+00  9.4847802188973540e-01  7.2822356935867303e+00  8.1293010297468804e+00  4.0639157200759959e+00  5.2448799386438667e+00  5.8843063900182813e+00  5.9429630405602083e+00  5.6603680642308918e+00  1.8829358793448796e+00  7.9610822536207193e+00  0.0000000000000000e+00  1.7538887417780435e+00  2.1217118931923014e+00  4.5357046125841380e+00  2.9312329173187055e+00  3.4151518342156000e+00  9.2091146439376725e+00  7.1100726424015868e+00  7.3514071405212302e+00  4.6584506947180060e+00  3.6121843357805811e-01  8.4468348964316284e+00  4.4362941088831223e+00  4.9547903707877206e+00  4.9815333786908313e+00  1.0000000000000000e+01  8.2933090197174106e+00  7.8960728507067826e+00  8.3743694198921190e+00  3.2864354430515674e+00  9.6944800969625682e+00  9.2360413818204847e+00  9.6441844318520289e+00  0.0000000000000000e+00  9.6944815700179738e+00  4.4741201497840128e+00  1.2276536724011022e+00  1.5923277467175363e+00  6.6546421857054971e+00  6.6755072070993995e+00  6.9125535639210511e+00  6.8280108856828852e+00  9.6614843446948715e+00  9.0994786348648731e+00  5.9427311207788085e+00  5.5222184345377796e+00  7.9587624634382037e-01  3.9407255224958280e+00  5.4409699846656006e+00  3.7368934241865626e+00  2.6409220305736345e+00  1.1546896345652207e+00  1.6718346864707734e+00  1.1167341880968247e+00  3.4578852534297386e+00  8.4802411217009190e+00  1.9699760113734908e+00  7.1077665309749465e+00  0.0000000000000000e+00  2.3285698620992270e+00  9.6704988134745236e+00  6.2884144970095734e-01  6.8638014675002106e+00  5.3347870415806256e+00  3.2210685443020970e+00  6.1287201182093165e+00  5.3537209847024352e+00  4.7696229687641045e+00  5.0681010031169631e+00  7.3129006584657477e+00  9.6799979980096751e+00  1.0079457135874184e+00  9.0436298570718758e+00  5.4185129777143741e+00  9.6876458032198567e+00  5.8211874142592173e+00  6.7953421419453068e+00  5.0935217281496632e+00  2.1944935782640425e+00  4.6151542590489498e+00  1.0000000000000000e+01  5.4543978172388305e+00  1.1350392734686354e+00  6.5658074031753086e+00  1.4215683665253567e+00  4.4373501641821838e+00  9.0352941453631281e+00  7.5518746890059951e+00  1.2647529335635488e+00  1.1593317912772494e+00  3.3810125366640515e+00  9.5067859923724840e-01  2.1806221005250568e+00  2.5631187654753043e+00  2.3579247413943163e+00  2.8133500693467015e+00  2.7048348453640316e+00  9.6799298078891933e+00  1.0000000000000000e+01  1.4050105468665501e+00  5.4663355572667625e+00  8.1713318600420841e+00  7.4545547437265567e+00  7.1664923806212499e+00  7.7473576993209559e+00  9.2615350753629411e+00  4.1287918531372139e+00  8.8100016458317665e+00  3.8668121730733311e+00  4.1180209731374724e+00  6.3238144327725969e+00  9.1510585396182105e+00  5.7604314719072267e+00  3.2334725270541109e+00  8.3421473436924778e+00  4.4219148721799639e+00  5.9157447204722944e+00  8.3793805338647811e+00  8.2470048060549850e+00  5.3820305814147353e+00  0.0000000000000000e+00  9.1685381928373886e+00  0.0000000000000000e+00  8.1494165323831798e+00  4.7577338152274402e+00  2.8721609538142543e+00  2.8946154235334802e+00  2.9379856522204091e+00  6.8307351025739278e+00  4.3747494227352437e+00  7.8574676886408437e+00  1.3321171893702151e+00  4.0140304411992345e+00  8.5917500039339547e+00  7.6322281563934435e+00  1.3823501885697247e+00  4.3877155069963782e+00  4.4386519737737853e+00  5.3309220663438870e+00  8.9259850487586139e+00  7.9269793692093220e+00  6.9357075840841791e+00  6.4091165995078407e+00  8.5327882935023300e+00  9.3758248198799343e+00  9.6941830808152378e+00  7.5461744907118939e+00  7.6617462072004594e-01  5.0699834874857492e+00  3.5061422948906318e-01  5.6912952802104568e+00  9.6942105049827187e+00  1.0000000000000000e+01  1.0000000000000000e+01  9.0831479229314631e+00  3.4983289910950175e+00  8.4710024505001744e+00  0.0000000000000000e+00  3.1918088347631368e-01  5.3820286792327794e+00  0.0000000000000000e+00  1.0000000000000000e+01  2.8656332587331468e+00  9.0831545455576315e+00  1.0000000000000000e+01  7.2421434288467630e+00  6.6246244096443467e+00  1.0000000000000000e+01  1.0000000000000000e+01  1.0000000000000000e+01  0.0000000000000000e+00  0.0000000000000000e+00  0.0000000000000000e+00  4.7567130370632746e+00  0.0000000000000000e+00  3.4983455266765242e+00  7.8574646181183398e+00  0.0000000000000000e+00  9.5730012464664349e-01  9.5730795287635995e-01  0.0000000000000000e+00  2.2309639218590358e+00  6.0046420647025451e+00  0.0000000000000000e+00  7.2421304260547403e+00  1.0000000000000000e+01  1.0000000000000000e+01  9.6944801156494727e+00  0.0000000000000000e+00  6.0046424148928574e+00  0.0000000000000000e+00  4.7566810661033596e+00  1.0000000000000000e+01  1.0000000000000000e+01  2.3853245037050130e+00  7.6367236031043086e+00  2.7730853068225730e-01  6.2600283886468091e+00  5.9035788972726024e+00  8.0533184832757581e+00  3.9679036307446363e+00  2.2430404187397666e+00  2.4870447675458198e+00  2.0082506102307391e+00  9.0312488233482799e+00  1.7539020287899791e+00  3.0094345745532070e-01  1.4954054204571048e+00  8.6229655698300078e+00  6.4750388654708935e-01  8.0658157497042826e-01  3.1391441603271186e-01  6.5203255840975760e-01  4.7875416843143476e-01  7.1801193683319653e-01  6.6772140037024841e-01  9.0614377898859413e+00  8.7266020177892152e+00  2.3755901905972086e+00  5.7243627137258279e+00  9.6626108427257975e+00  9.4082459812177044e-01  6.4918323690530579e+00  4.2993592483832854e+00  1.4183808023440398e+00  3.9988895663756145e+00  2.9567595169642975e+00  3.6594865080023888e+00  7.7165155652358290e+00  9.2137415484958609e+00  2.1779541468157224e+00  8.8811196675562005e+00  8.6063889386642387e+00  6.8225054200043003e+00  3.5230717039295394e+00  4.8806635503064930e+00  7.0679786868025527e+00  2.6900348568790857e+00  5.4755701277940094e+00  9.0325126656241306e+00  2.9354550031643361e+00  6.3436481514806253e+00  8.3033713447954316e+00  7.7967526066692479e+00  8.2471326796645243e+00  3.0758388710436385e-01  2.6652327357755432e+00  2.3617364544285917e+00  2.0722251258012525e+00  1.3566653348489206e+00  1.7152813984910622e+00  4.1955315178149579e+00  5.3042144169230481e+00  4.9437793725830446e+00  7.8324446028626431e+00  9.3920397712825814e+00  9.1741048517972139e+00  7.5138107097093956e+00  7.3438430480176127e+00  4.0419048352012972e+00  5.3338795848365832e+00  1.2419337792593306e+00  1.4326990837757929e+00  1.8964336096156460e+00  1.7028622831557081e+00  2.0464482150237191e+00  1.9429080661170710e+00  1.7742965742832932e+00  6.4573341448546948e+00  6.3799711167739090e+00  3.9346020235159145e+00  5.9749403535326531e+00  8.9985527239245187e+00  3.4348211940721747e+00  2.9852070939693900e+00  9.7280273638753663e+00  8.6187891504674017e+00  8.7953692965634929e+00  5.5139704745336759e+00  9.3382139036981904e-01  6.5255488273995814e+00  4.9179692694723016e+00  3.3863350585347929e+00  7.0480580144194258e+00  7.8820119761039642e+00  1.8044082714248177e+00  8.4549961662422799e+00  8.2137507931581428e+00  7.8235025651955565e+00  9.6827600132151570e+00  8.7846936434387448e+00  8.8925203408047260e+00  9.1860547293374442e+00  8.5085388493666478e+00  3.1659202157099506e+00  1.1665014068702169e+00  1.6996207538959816e+00  9.6928350737627902e+00  3.2616996872723187e+00  1.7128810949940212e+00  6.5588657887750266e+00  7.0972290905083382e+00  4.5354336752801716e+00  3.7089248517386606e+00  4.8378954461532251e+00  2.2902040054907538e+00  2.4242636543926124e+00  2.2120694751833652e+00  2.5462811472588681e-01  3.1001079238876632e+00  8.2385506962799386e+00  7.8783641177415058e+00  1.4664244215119524e+00  9.2474257437626992e+00  7.9272681148708495e+00  8.5239883547036577e+00  7.4097019398074044e+00  6.3273759097528641e+00  1.7513768571050849e+00  1.5002078481016794e+00  1.1893289729932983e+00  1.2779794119163199e+00  6.0054625729676010e+00  7.77510