<?xml version="1.0"?>
<VTKFile type="UnstructuredGrid"  version="0.1"  >
<UnstructuredGrid>
<Piece  NumberOfPoints="2513" NumberOfCells="4852">
<Points>
<DataArray  type="Float64"  NumberOfComponents="3"  format="ascii">-1 1 0  -1 -1 0  1 -1 0  1 1 0  0 -1 0  1 0 0  0 1 0  -1 0 0  0 0 0  -1 -0.5 0  -0.5 -1 0  -0.5 1 0  -1 0.5 0  1 -0.5 0  0.5 -1 0  1 0.5 0  0.5 1 0  0.4166666666666666 -0.4166666666666667 0  -0.4166666666666667 0.4166666666666667 0  -0.25 -0.5 0  0.5 0.25 0  -0.4861111111111112 -0.06944444444444445 0  0.0732758620689655 0.507183908045977 0  -0.625 -0.625 0  0.625 0.625 0  0.7380952380952381 -0.25 0  -0.7099116161616161 0.2105429292929293 0  -0.25 0.7380952380952381 0  0.105392156862745 -0.6348039215686275 0  0.6770833333333334 -0.6770833333333333 0  -0.6770833333333334 0.6770833333333334 0  0.3472222222222222 -0.06944444444444446 0  -0.7264957264957265 -0.3044871794871795 0  0.3141940982507127 0.7297313660835709 0  0.02049587951122483 -0.3227479397556124 0  -0.2690972222222223 0.1475694444444444 0  0.3859500089908372 -0.7274430156831472 0  -0.2228477945123298 -0.1761765495248019 0  0.2182539682539683 0.1884920634920635 0  0.75 0.375 0  -0.145442219440968 -0.7602211097204841 0  0.7088913690476191 0.0427827380952381 0  -0.75 -1 0  -1 -0.75 0  1 0.75 0  0.75 1 0  -0.7439982703698937 -0.04614153195464455 0  -0.4609235096577606 -0.3356498099556895 0  0.4063134471431929 0.4895621842856023 0  0.25 -1 0  -0.25 -1 0  -0.75 1 0  0.75 -1 0  -1 -0.25 0  -1 0.25 0  1 -0.25 0  -0.25 1 0  1 -0.75 0  -1 0.75 0  0.25 1 0  1 0.25 0  -0.4041423272138783 -0.7597141090712928 0  0.06500839607911253 0.7578103030529481 0  -0.1572801182352047 0.3838997021864289 0  -0.6528005242053915 0.4409494757946086 0  -0.4930160984848485 0.1544744318181818 0  -0.4732142857142858 0.7752976190476191 0  0.6398809523809523 -0.4538690476190476 0  0.5166054117396399 -0.2161233620965164 0  -0.002273787244753427 0.2232363985975174 0  0.1500564496765022 -0.1524955293952667 0  0.2016720420046758 -0.4410343282803009 0  -0.08495178036419618 0.6274139771124571 0  -0.8367311471133162 0.3642591720794645 0  -0.8333333333333334 -0.625 0  -0.594323836800685 -0.8231079456002283 0  -0.4466957714776065 -0.5349126855671806 0  0.8125 0.5625 0  0.78125 0.78125 0  0.5091392650016769 0.7947130883338923 0  0.125 -0.8382681931833136 0  -0.8184523809523809 -0.8184523809523809 0  -0.07781530426104531 -0.5819319697006881 0  0.5085055196703295 0.04967610411902112 0  0.2918471072074933 -0.276017202318847 0  0.5120763537765269 -0.5898771553229597 0  0.625 -0.8585349462365591 0  0.8158532234335381 -0.8158532234335381 0  -0.5198088446315396 0.5739411553684605 0  -0.8585349462365591 0.625 0  -0.8150493805516597 0.8156205699829586 0  0.8585349462365591 -0.625 0  -0.2688268348649726 0.5439331383603209 0  0.8242100426758139 -0.4436043596336612 0  0.5833756314287952 0.4479378157143976 0  0.8690476190476191 -0.125 0  -0.125 0.8690476190476191 0  -0.8692745600729823 0.125 0  0.8696725120759167 0.125 0  -0.625 0.8711516477451908 0  0.2339522463269718 0.3879558377955778 0  0.2453709502295031 0.5655822922838026 0  0.1730610651637797 0.02021709580868947 0  0.3245402594056757 -0.5644672020485209 0  -0.7291666666666666 -0.4816595441595442 0  -1 -0.375 0  -0.5811140848639904 -0.2127276307675001 0  0.673332592838314 0.2158348143233718 0  0.375 1 0  -0.5714768890989919 0.2985103444040069 0  -1 -0.125 0  -0.8453692574786325 -0.1875 0  -0.3144549134065865 -0.02408675326008025 0  -0.2898414972096258 -0.3336092734780093 0  -0.1075052092206287 -0.4224330421314983 0  -0.05043970703604117 -0.1652278959397459 0  0.6459672950297897 -0.1113415301525317 0  0.4645210271029513 0.6398480556579343 0  0.3512863754411909 0.0937979496253573 0  -0.6063160985568274 0.03891469652249891 0  -0.3428819444444445 0.8690476190476191 0  0.625 1 0  -0.1602164796159982 0.02697860906625157 0  0.04648110064133829 -0.4808416424239687 0  1 0.875 0  -0.3836102479201657 0.6484936449177356 0  -0.3776011723096096 0.263078478984336 0  -0.6024978259969829 -0.3949628096211138 0  0.125 1 0  0.2010781308272777 0.8456221018461906 0  0.2822509696388829 -0.845902544691141 0  -0.3285533674953515 -0.6289773550938936 0  0.3461306793221754 0.278777492464833 0  0.4737475672408696 -0.8508448959534423 0  0.2384632828836344 -0.7029523187242811 0  -0.004777287059791593 0.3759269695907358 0  -0.8499735021850066 -0.3912320205328522 0  0.1222536293721587 0.2963971539625205 0  -0.3769456520999688 -0.203572526805711 0  -0.2749617205755651 -0.8464290792698902 0  0.004805888512766143 -0.747174355248311 0  -0.125 -1 0  -0.06001061822252458 -0.8724007765244854 0  0.875 0.4375 0  0.854421179608893 0.271342359217786 0  0.875 1 0  -0.1499861095763589 0.2358309656934888 0  0.3381943639137225 0.8663061796405532 0  -0.7853090110442228 0.4998412775277108 0  0.7398165998560814 -0.5535192694951373 0  0.1580042122341573 -0.3100246140259917 0  -0.7291666666666667 -0.7142857142857142 0  -0.375 -1 0  0.6483368386154684 0.8514905990110488 0  -0.1295370103291928 -0.2826118305021242 0  0.07458201853700455 0.1123894386563915 0  0.6146465857036327 -0.3161203659316075 0  0.5551898493894731 -0.740296118159085 0  0.375 -1 0  0.482702798370208 -0.084133350091034 0  0.87890625 0.68359375 0  -0.05917195534525846 0.4971092425697621 0  0.1260710309213975 0.6343750312956699 0  0.8690476190476191 -0.3077066815262848 0  -0.2912010232560567 0.3668168386732139 0  -0.875 1 0  -1 0.875 0  1 -0.875 0  0.875 -1 0  -0.8689564281364567 -0.006189266075306407 0  -0.7449425635110547 0.08458938160051771 0  -0.7150266761936593 -0.1739444581417552 0  -0.5260034831318311 -0.711099823962112 0  -0.4724626808827322 -0.871722230709409 0  0.4734436795977052 0.377714794132168 0  -0.875 -1 0  -1 -0.875 0  0.6927189078571988 0.5156567235715964 0  -0.3742497615796874 -0.4296005251260107 0  -0.1969436423297711 -0.6387157229772615 0  -0.6179496409766825 -0.08933356056510935 0  -0.424405057115988 0.04452428810878029 0  -0.08479048335844169 0.1279607007132633 0  0.003830300099055113 0.8712085230656206 0  0.8748778838820267 -1.379218479898026e-05 0  -0.375 1 0  -0.625 1 0  1 0.125 0  -0.125 1 0  1 -0.375 0  1 -0.125 0  1 -0.625 0  0.625 -1 0  0.125 -1 0  -0.625 -1 0  -1 -0.625 0  -1 0.125 0  -1 0.375 0  -1 0.625 0  1 0.375 0  1 0.625 0  0.6325660748712082 0.3335187599557389 0  -0.06420945895056573 0.7549874027425891 0  -0.8769015540914771 0.2478802253893416 0  0.871875 0.871875 0  -0.6868091492840067 0.3270978624973681 0  -0.5363597469565949 0.412994850055505 0  -0.6803734992638302 0.5574295000651103 0  -0.7076253581162534 -0.8803439094224437 0  -0.8778089002295137 -0.5106896447504627 0  -0.3860184984222981 0.530566778071246 0  0.6109900617121508 0.1128453077697081 0  0.3896945134930274 -0.1915382873255086 0  0.7605656944697778 -0.06822134873122943 0  0.3576151269893478 0.5948388411612135 0  -0.5689902680792265 -0.5143596830118065 0  0.6262446286847614 -0.5735657901943212 0  0.2030558252325225 -0.5625263842513452 0  0.6123273142928579 0.7407533260723429 0  0.4016460890123554 -0.3042863223111857 0  -0.59039693199147 0.7578418819188018 0  0.7276932493917544 -0.3705808024528924 0  0.5222536818742854 -0.4713886230400014 0  -0.5101986527137737 0.8848365765607674 0  0.510560172809238 0.5356013299918891 0  -0.3603569195756083 0.75823710606415 0  0.1967279277813232 0.728226870058472 0  -0.6086880986371127 0.1545624071548516 0  -0.38105366729386 0.1511189987807864 0  -0.2944659463671584 -0.7359061804869591 0  0.5060729154966499 -0.3475227845833823 0  -0.09281616240412746 -0.06197858250969457 0  0.7649739583333334 0.6673177083333334 0  0.7628906249999999 0.890234375 0  -0.2666864184909611 0.2585504071132311 0  0.3635064892129658 0.3878003602709461 0  -0.2339409722222222 0.8901937905844155 0  -0.1718792125974916 -0.8957733325456778 0  0.1001768566329531 0.4023510017391879 0  0.3120260172693757 -0.4540546875576884 0  0.7804062804433681 0.1896628610854537 0  0.4087715451998049 0.187961780041608 0  -0.1584963477271457 0.5451611892421655 0  -0.8926817849258324 0.463022006336401 0  0.2338091473445219 -0.07576267331277289 0  0.08171112182813692 -0.2349087687359925 0  0.04635385178956847 -0.1044635073718474 0  -0.4377391632114205 -0.6448874471423088 0  -0.1907678351227189 0.6480215912813945 0  0.300605946475244 0.4741444604171038 0  -0.2145033720757486 -0.06751709909419711 0  0.6069191921170397 -0.005492331448357812 0  0.0214718770761248 0.6032397936031719 0  0.5476675683364878 0.8992752415326501 0  0.4387475014316537 0.9093708953002239 0  -0.4932997685306436 -0.4381009159993523 0  0.2515197695339056 -0.1791673369138964 0  -0.7291666666666667 -0.6088789682539681 0  -0.9166666666666667 -0.6875 0  0.620579540363709 -0.2122431523583302 0  -0.484950136419973 0.6719440339397442 0  0.2857044415400258 0.0137589173127316 0  -0.8945708364098356 -0.288306105327986 0  0.4043102720140535 0.7842914560451557 0  0.04123256238752064 -0.9026968245801402 0  0.2003676884403109 -0.9091888601740487 0  0.1068775558538842 -0.7373377130403223 0  -0.4804566783514427 -0.1763307203045643 0  0.108286342087769 -0.3993789328997278 0  -0.191883080105361 -0.3640821726430649 0  -0.07025064492006244 0.2984876656890053 0  -0.7039324641409584 0.788312126296613 0  -0.7311286585775438 0.8932502354831682 0  0.5171409396884947 0.1503852691889257 0  0.4229392823658633 -0.003216522184234835 0  -0.5621736087218259 -0.919558629836806 0  -0.626474064879544 -0.7266572613636506 0  0.2446828746617422 0.2867616783302419 0  0.1759429608742923 0.4776611759306416 0  -0.3468240303741654 -0.5260416435617549 0  -0.7465808808425306 0.4069574477998361 0  -0.7819962170660292 0.2802441065650652 0  -0.3742623214119594 -0.8547800509641984 0  0.1014498009713561 0.8506721983266377 0  0.4285217620918213 -0.5230190595570253 0  0.4091738370487775 -0.6256346204225141 0  0.78125 0.46875 0  0.90625 0.53125 0  -0.4791801348852565 0.2553992655702126 0  0.7843318610782772 -0.7086046956885941 0  0.8909728264971901 -0.7355183796514634 0  0.7041908166528879 -0.7830649143180282 0  0.7311821352
[...]
<PointData  Scalars="velocity-2"> 
<DataArray  type="Float64"  Name="velocity-2"  format="ascii">0.0000000000000000e+00  0.0000000000000000e+00  1.0000000000000000e+01  1.0000000000000000e+01  4.9439622537458412e+00  1.0000000000000000e+01  4.9439254114535895e+00  0.0000000000000000e+00  4.9439417809548658e+00  0.0000000000000000e+00  2.4576512564140582e+00  2.4576785372660099e+00  0.0000000000000000e+00  1.0000000000000000e+01  7.4630555902024307e+00  1.0000000000000000e+01  7.4630490387753934e+00  7.0414800157201363e+00  2.8696353538536199e+00  3.6963293948962681e+00  7.4630702995971401e+00  2.5262769101838747e+00  5.3113247026250479e+00  1.8414091959024472e+00  8.0963694717365300e+00  8.6700512512212526e+00  1.4236548443355632e+00  3.6963312025256365e+00  5.4725747799586335e+00  8.3604792715375016e+00  1.5850991165969364e+00  6.6905918619427167e+00  1.3421682010682092e+00  6.5238610434000970e+00  5.0466506298015981e+00  3.6014116482723919e+00  6.8862308390123195e+00  3.8313931892493684e+00  6.0402005138393866e+00  8.7304670288395467e+00  4.2170139533376645e+00  8.5218477415394727e+00  1.2266516622763606e+00  0.0000000000000000e+00  1.0000000000000000e+01  8.7304613011660415e+00  1.2561398157247494e+00  2.6507573177629071e+00  6.9891032049842083e+00  6.2001204337640932e+00  3.6963186272401920e+00  1.2266620600586182e+00  8.7304570830402248e+00  0.0000000000000000e+00  0.0000000000000000e+00  1.0000000000000000e+01  3.6963516023318737e+00  1.0000000000000000e+01  0.0000000000000000e+00  6.2001361050597934e+00  1.0000000000000000e+01  2.9316172846194979e+00  5.2698552310189273e+00  4.1579790744803677e+00  1.7045413454852958e+00  2.4921606315895950e+00  2.5899866897828066e+00  8.1718004785233092e+00  7.5471560927361141e+00  4.9325798608740525e+00  5.6969996735459043e+00  5.9566839212044531e+00  4.5189760055924957e+00  8.0081762791461286e-01  8.1750008418940279e-01  1.9924908736513025e+00  2.7210931261869367e+00  9.0477348963030018e+00  8.8890839425742385e+00  7.5093255555403813e+00  5.5710987566288397e+00  8.9053379072190864e-01  4.5546768451893893e+00  7.5061327821468069e+00  6.4111255150441364e+00  7.5242146320030727e+00  8.0963510016240665e+00  9.0647570863721310e+00  2.3599052226589734e+00  6.9382464337067329e-01  9.0722932225492825e-01  9.2814831440652075e+00  3.6027727862144752e+00  9.1071809129874044e+00  7.8853722574055203e+00  9.3348667118270452e+00  4.3189786811607140e+00  6.4112855314249617e-01  9.3380386282416001e+00  1.8413792316302426e+00  6.1192596858772710e+00  6.1767825384887214e+00  5.8126896723734136e+00  6.5761022732327632e+00  1.3290226038175421e+00  0.0000000000000000e+00  2.0575903070263020e+00  8.3414628082744109e+00  6.8308504747675842e+00  2.1050482211934565e+00  0.0000000000000000e+00  7.5843263342737333e-01  3.3761325835251985e+00  3.4983878298847175e+00  4.4063696141625561e+00  4.6915281912735747e+00  8.2026571478243557e+00  7.2835351672891360e+00  6.7110990820530940e+00  1.9333922453202410e+00  3.2351285640395804e+00  8.0963516585541040e+00  4.1433655713435522e+00  5.1768894409971011e+00  1.0000000000000000e+01  3.0332801384545238e+00  3.0630491420041301e+00  1.9522066445537347e+00  5.5710650761138920e+00  5.9537256742960061e+00  6.3627136018672186e+00  3.3062195460549368e+00  6.6851093732300777e+00  7.3301924093895501e+00  6.1420019198230733e+00  4.9200512957054459e+00  7.3583342369894311e-01  5.5572804446573709e+00  3.0662827124776575e+00  3.5722621279529014e+00  4.9680444137795448e+00  4.3189935607604832e+00  4.6436260409336745e+00  9.3651021259459171e+00  9.2605915562182464e+00  9.3650994048541598e+00  4.1943486921960753e+00  6.6450116936301171e+00  1.0532611666938607e+00  8.6787785434819256e+00  5.7369782259989552e+00  1.3290398938375398e+00  3.0759349196879890e+00  8.2146801820509001e+00  4.2963664718867864e+00  5.3178957335816675e+00  8.0438828468826493e+00  7.7425661193602009e+00  6.8308920724697835e+00  7.3755110917023901e+00  9.3849418012557138e+00  4.6478518778185620e+00  5.5764644270617314e+00  9.3348756349058100e+00  3.4916172165817270e+00  6.1303436032344205e-01  0.0000000000000000e+00  1.0000000000000000e+01  9.3650945287960088e+00  6.4269339278064042e-01  1.2515012621956183e+00  1.3985252376586339e+00  2.3293385040427448e+00  2.5937139492474905e+00  7.3286566204405990e+00  6.1303979042198631e-01  0.0000000000000000e+00  8.4397995163470778e+00  3.0796491322381385e+00  3.9603718304693269e+00  1.8761149750006787e+00  2.8313534407786434e+00  4.5197986752641457e+00  4.9631750086490900e+00  9.3644834537139712e+00  3.0758972269061555e+00  1.8413761887216540e+00  1.0000000000000000e+01  4.3190006688534561e+00  1.0000000000000000e+01  1.0000000000000000e+01  1.0000000000000000e+01  8.0963433705750454e+00  5.5710734066124470e+00  1.8413877958048079e+00  0.0000000000000000e+00  0.0000000000000000e+00  0.0000000000000000e+00  0.0000000000000000e+00  1.0000000000000000e+01  1.0000000000000000e+01  8.1347230967291662e+00  4.6226661451240991e+00  6.0370621374642852e-01  9.3492274720350128e+00  1.5372409429480733e+00  2.2782388825277966e+00  1.5689021975997044e+00  1.4349173379799143e+00  5.9926131264522453e-01  3.0213614955188088e+00  8.0253337341511077e+00  6.9052002640421772e+00  8.7840866908708666e+00  6.7430675760908203e+00  2.1173396708177625e+00  8.1026601636164628e+00  5.9636671577670990e+00  8.0320969582965009e+00  6.9655549416378628e+00  2.0118204380799254e+00  8.6172585384601597e+00  7.5757252047237360e+00  2.4073573221652049e+00  7.5165246171001927e+00  3.1484809958205022e+00  5.9318148859528597e+00  1.9217161242613987e+00  3.0459308256579058e+00  3.4753869645555242e+00  7.4938158723437258e+00  4.4796872374659689e+00  8.8064665196403560e+00  8.7958814752859507e+00  3.6133646115707059e+00  6.7728459891058268e+00  3.7762174737064584e+00  4.0852021704450916e+00  5.4463699816132110e+00  6.5128790838013142e+00  8.8847893501564545e+00  7.0015370886650352e+00  4.1519093047388411e+00  5.2629830542176637e-01  6.1185539892120042e+00  5.3536881784373911e+00  5.1762812626521804e+00  2.7653614528280142e+00  3.9911054243221304e+00  6.4552962128150835e+00  3.8728656809654494e+00  8.0046858960879899e+00  5.0515240470206626e+00  7.7044469388686592e+00  7.1531108790862143e+00  2.4907907551783608e+00  6.2077690032639685e+00  1.3290446271786238e+00  4.0865631119334345e-01  8.0739538965065361e+00  2.5320351451281420e+00  6.3801386552772863e+00  5.1703926085457685e-01  6.9790129820209996e+00  5.1505657067605055e+00  5.9501244845187271e+00  5.4800594971808270e+00  2.5542082426590307e+00  5.4871007484283796e+00  3.9855691660969406e+00  4.5924588285516297e+00  1.4530618090228178e+00  1.3193683815830521e+00  7.5498401472011496e+00  7.0731943948625196e+00  2.1509266760587407e+00  1.8341549668381989e+00  6.1733305702926762e+00  5.8272134416318826e+00  3.2155661439118886e+00  1.2434622902663770e+00  1.0695021136219856e+00  3.0795753164340423e+00  5.4527790541882641e+00  7.1014425509825010e+00  7.0035978302846917e+00  8.8890859061478942e+00  9.5238129651704799e+00  2.5605148744995119e+00  8.9047276571345186e+00  9.4462180561364111e+00  8.4979889023068349e+00  8.6349585625062542e+00  4.0183219302473711e-01  4.5674294643249358e-01  1.0584418557214561e+00  3.7773788277671305e+00  9.8252374679477905e-01  5.0200270082615117e-01  4.4515204088381649e-01  8.5400612941261689e-01  8.4524302204244339e-01  9.4551571841344533e+00  3.5115328078599264e+00  2.0549444790727760e+00  6.8490401634473406e+00  4.5621068550473440e+00  5.0565547267557811e+00  4.1086981671678844e+00  1.1356593092605831e+00  6.5203415982523047e+00  5.5505921419356392e+00  3.0199414546434156e+00  3.3033873217309755e+00  3.8508296305060602e-01  7.7795850467450292e+00  9.4683518840226952e+00  9.5261510013262445e+00  9.3670873882598009e+00  2.3133887404635409e+00  2.5948992417097831e+00  1.9891490753928778e+00  6.1534388598878307e+00  8.7077809353588904e+00  3.3111752952340372e+00  6.5588131908742850e+00  6.1185278620398753e+00  4.1449303629626701e+00  7.3294907305203481e+00  4.0503256898765203e+00  1.8269794032330975e+00  8.6513049200931160e+00  3.3858505666892253e+00  8.8832641863784456e+00  8.4437832823035264e-01  9.5275364468237633e+00  3.2870791320797049e-01  2.3852123614580938e+00  8.3200841127196714e+00  7.9774066376660997e+00  7.9133208804789383e+00  4.6311803602673018e+00  1.0412425522236972e+00  3.2052744447876341e-01  8.9930310781897358e+00  9.6690070753193407e+00  3.4087749860822734e+00  6.5152959973830500e+00  7.6054868908706110e+00  7.1468481778088941e+00  9.6688645407347487e+00  9.0477381249373661e+00  6.3736567739674941e+00  5.5916179732021947e+00  2.7665362724247204e+00  1.1933717689149195e+00  1.0187127147638098e+00  1.6396428664358687e+00  9.6686082378052411e+00  3.0719089875883560e-01  3.0754223689616222e-01  9.6690079221370961e+00  9.6674164522441508e+00  5.2572216639627998e+00  3.9489276379480359e-01  9.6670377086524546e+00  8.5267766485196823e+00  7.8820846496502046e+00  5.5127451985791156e+00  5.8829730660965183e+00  8.4133223474891476e+00  6.8836131145444091e+00  6.6584249963689794e+00  4.9530361197660149e+00  5.3693284013095832e+00  3.2052031063505115e-01  1.5383753577523140e+00  8.4929640653768210e+00  3.7063712276240279e+00  4.1901600310034759e+00  2.5840970366449318e+00  4.9179511386515609e+00  5.8853516545222968e+00  2.4233817371140431e+00  3.5110236418724012e+00  3.0745465090257871e+00  3.8358080918720878e+00  7.8598183147127640e+00  7.1650854581678560e+00  9.0964091610201621e+00  4.9735148382391481e+00  2.3941864652217992e+00  9.4270237441362448e-01  3.4669557149400174e+00  8.6434839788788267e+00  9.1705090930529920e+00  4.0866038141432981e-01  3.6290488994843118e-01  7.7973354623476476e+00  8.4589861022455484e+00  3.8554996826314665e+00  8.3953054154164715e+00  4.3149421435238411e+00  6.2650935355734081e+00  7.6897207785838351e+00  2.7978309981315745e+00  2.2051029383415117e+00  4.7116505373407342e+00  4.8904841790636899e+00  4.6201788378625510e+00  5.6569519439572380e+00  2.1945780582642787e+00  1.7538745001283305e+00  1.9265042294328871e+00  1.7829783286314356e+00  2.2357401238414365e+00  2.1492935406159748e+00  4.5673525472741785e+00  4.9290069854920109e+00  4.0115960182825683e+00  7.4726783645297461e+00  6.2240464627474159e+00  1.6456867038164122e+00  2.2065617814882614e+00  8.7185325868850470e+00  4.2634271132796950e+00  7.0233513136472379e+00  7.6802389670718325e+00  7.1362990408386384e+00  2.7665542525329716e+00  6.0206218536512441e+00  3.4504211901216126e+00  3.4734415767860853e+00  5.7297235171263887e+00  4.9856103268603107e+00  5.5472076743129746e+00  5.9766726824699585e+00  4.5456303975416184e+00  3.0907945742519845e+00  2.9211713947019180e+00  9.0880414804036285e+00  9.6803281239114067e+00  6.5375969177580471e+00  4.3164674637099743e-01  4.1959993119894738e+00  7.2272688835494083e+00  3.3320724172061729e+00  9.1204405592999898e+00  2.8134352942830869e+00  6.4525699247258572e+00  3.8193005383218748e+00  2.7174476707869486e+00  9.6407199619357637e+00  5.0565952109500678e-01  5.6879861137244490e+00  8.0949753868505780e+00  9.3840335515189945e+00  3.0647977018987421e-01  8.9215076046528541e+00  4.0074066881497750e+00  3.2836985066586775e+00  1.5717707220419339e+00  3.8627234746980915e-01  6.2735856157914336e+00  1.0200193119867773e+00  1.6470626263892427e+00  1.6793008032422010e+00  5.1170783745640973e+00  5.1255917131591380e+00  8.4133153537235419e+00  8.2858232085711876e+00  6.1999247362213739e+00  1.0000000000000000e+01  2.8321197995817351e+00  9.3406348424004226e-01  7.7130919384639087e+00  3.5291537180578780e+00  3.0731975554831568e+00  4.5948064192074254e+00  1.8068594898217611e+00  1.5338429637434297e+00  7.8488798990185114e+00  8.5804087007682757e+00  2.2657468311801212e+00  2.1739978317870667e+00  6.5153153718101953e+00  2.9995049464418893e+00  5.7648609298254847e+00  2.8525366676268513e+00  4.2239907850960083e+00  3.9102094532484069e+00  4.5609281171002332e+00  1.0000000000000000e+01  9.2993137635900087e+00  7.6239044778325464e+00  7.2699779589518529e+00  7.1605055543809848e-01  8.4290508903572849e+00  7.9083575371784836e+00  6.4174210945806180e+00  4.8092763384070318e+00  1.5338369837593391e+00  9.6634705525600726e+00  4.0940847177139617e+00  3.7324696823784422e+00  1.3855704006804632e+00  9.1126586004938337e-01  7.1879687329883541e+00  8.0600827897343290e+00  3.9432285320112794e+00  5.1195513763518150e+00  5.7636571326770314e+00  5.8229604981053056e+00  5.5374965253086277e+00  1.8123094894536167e+00  7.8864507209818120e+00  0.0000000000000000e+00  1.6875655558764859e+00  2.0434298392381707e+00  4.4111029786792884e+00  2.8306059209922902e+00  3.3041907684429970e+00  9.1784559444813532e+00  7.0114497352826826e+00  7.2589414280712994e+00  4.5332747088632130e+00  3.4686069708675876e-01  8.3883243054338639e+00  4.3122821793323585e+00  4.8290266357676934e+00  4.8557301477339410e+00  1.0000000000000000e+01  8.2295430588973026e+00  7.8194142434894891e+00  8.3133698136508016e+00  3.1779793473272098e+00  9.6825352426120403e+00  9.2064130523237182e+00  9.6302785317379396e+00  0.0000000000000000e+00  9.6825326619151948e+00  4.3498670063994114e+00  1.1799800564306770e+00  1.5315578996712649e+00  6.5459694503734500e+00  6.5672350591480040e+00  6.8093041444092108e+00  6.7229123916194009e+00  9.6482531558282183e+00  9.0646754914746310e+00  5.8227559134240492e+00  5.3982733016973299e+00  7.6450231602115182e-01  3.8215295905789448e+00  5.3165693409589254e+00  3.6205032367342742e+00  2.5476191060263447e+00  1.1097135535377383e+00  1.6083153255685374e+00  1.0731753030431432e+00  3.3461575863293458e+00  8.4229087524061654e+00  1.8965079067757122e+00  7.0090947484315169e+00  0.0000000000000000e+00  2.2440167245888079e+00  9.6576152790862952e+00  6.0396230534616746e-01  6.7595187152334359e+00  5.2098186839086269e+00  3.1139304582143956e+00  6.0111093181803277e+00  5.2288439836683738e+00  4.6441023815302858e+00  4.9423787565591839e+00  7.2194346367508704e+00  9.6674899034760102e+00  9.6847870329911456e-01  9.0067286869544603e+00  5.2939942801439672e+00  9.6754355605915876e+00  5.6998594739354882e+00  6.6895147538832589e+00  4.9678410505619164e+00  2.1139671229920225e+00  4.4901659543843566e+00  1.0000000000000000e+01  5.3300500665169972e+00  1.0908031765182533e+00  6.4554110120860591e+00  1.3668541163651382e+00  4.3133540643450781e+00  8.9980711243874101e+00  7.4649551735947295e+00  1.2157038800197388e+00  1.1141771033495982e+00  3.2707124134594512e+00  9.1338066313641897e-01  2.1005268391468475e+00  2.4719069648213239e+00  2.2725298316379341e+00  2.7155803083142862e+00  2.6098692572550606e+00  9.6674188340962068e+00  1.0000000000000000e+01  1.3508759702004771e+00  5.3420410584563669e+00  8.1034925235516209e+00  7.3649157318564571e+00  7.0693035560985971e+00  7.6661492594564233e+00  9.2328684706159869e+00  4.0073421371374405e+00  8.7644526544594097e+00  3.7485774548695305e+00  3.9967640943857337e+00  6.2091823232794008e+00  9.1181992928402309e+00  5.6384931833752079e+00  3.1261202985416943e+00  8.2800445447150235e+00  4.2980208613904622e+00  5.7954288232099129e+00  8.3185577422568109e+00  8.1816937918471311e+00  5.2571965253678208e+00  0.0000000000000000e+00  9.1363407126632374e+00  0.0000000000000000e+00  8.0808674159096796e+00  4.6322532719933145e+00  2.7729571040888015e+00  2.7948369193448137e+00  2.8371923740037701e+00  6.7256932506785096e+00  4.2512083290961202e+00  7.7795796727135045e+00  1.2806078738297022e+00  3.8939475431852770e+00  8.5383411927609547e+00  7.5475956947420544e+00  1.3290097719106313e+00  4.2640719495414592e+00  4.3146092325522094e+00  5.2059037788746094e+00  8.8846924365796660e+00  7.8512463749096675e+00  6.8329809977029576e+00  6.2958887779067636e+00  8.4772928146483792e+00  9.3515394771204505e+00  9.6822169791661228e+00  7.4591091947862118e+00  7.3594677327777724e-01  4.9442092262433297e+00  3.3667784169637288e-01  5.5686850495473745e+00  9.6822498917968769e+00  1.0000000000000000e+01  1.0000000000000000e+01  9.0477260825628232e+00  3.3858393321788687e+00  8.4133059852869430e+00  0.0000000000000000e+00  3.0648536502850005e-01  5.2572229277452713e+00  0.0000000000000000e+00  1.0000000000000000e+01  2.7665275742253770e+00  9.0477235055892553e+00  1.0000000000000000e+01  7.1467967769926162e+00  6.5152852104244756e+00  1.0000000000000000e+01  1.0000000000000000e+01  1.0000000000000000e+01  0.0000000000000000e+00  0.0000000000000000e+00  0.0000000000000000e+00  4.6311913521912658e+00  0.0000000000000000e+00  3.3858047529013122e+00  7.7795778432187577e+00  0.0000000000000000e+00  9.1973633056831328e-01  9.1973195695648313e-01  0.0000000000000000e+00  2.1493182105822868e+00  5.8853347334118444e+00  0.0000000000000000e+00  7.1468212866015124e+00  1.0000000000000000e+01  1.0000000000000000e+01  9.6825328535730755e+00  0.0000000000000000e+00  5.8853261913394181e+00  0.0000000000000000e+00  4.6312015038178256e+00  1.0000000000000000e+01  1.0000000000000000e+01  2.2991046210189725e+00  7.5522118514845467e+00  2.6627372351996370e-01  6.1443770571665564e+00  5.7831058224758101e+00  7.9816481820025373e+00  3.8483410582458450e+00  2.1610479571286350e+00  2.3979451559747473e+00  1.9335468297207450e+00  8.9938763171482101e+00  1.6875802012345671e+00  2.8897123316020262e-01  1.4380336209756435e+00  8.5706670310758515e+00  6.2189098684546551e-01  7.7478843122597718e-01  3.0142417440553515e-01  6.2623603828457264e-01  4.5975237053419976e-01  6.8965506849982761e-01  6.4132723264542690e-01  9.0251970614697292e+00  8.6780240159265816e+00  2.2896681121968108e+00  5.6020726959106586e+00  9.6494207763654067e+00  9.0389965394008742e-01  6.3800702011714119e+00  4.1764038326175124e+00  1.3637683698851248e+00  3.8789689145314608e+00  2.8555282922432212e+00  3.5442834198515323e+00  7.6344020173142635e+00  9.1832592091530412e+00  2.0979325983243617e+00  8.8381730264728198e+00  8.5534921216880413e+00  6.7172719100842206e+00  3.4101690394972741e+00  4.7548783282332217e+00  6.9683417518428072e+00  2.5954337859172294e+00  5.3513511331985830e+00  8.9951863761766990e+00  2.8346967195767787e+00  6.2293095460995911e+00  8.2399415861732823e+00  7.7170158000819784e+00  8.1818214647864131e+00  2.9534941433890161e-01  2.5712824095602755e+00  2.2762079456612718e+00  1.9954860078244174e+00  1.3042587204067009e+00  1.6502792600174552e+00  4.0734645489225976e+00  5.1791242591935012e+00  4.8179597432535433e+00  7.7538231659308678e+00  9.3683640668721697e+00  9.1421168412121148e+00  7.4258270396362693e+00  7.2512077614285557e+00  3.9214296386251997e+00  5.2088899513338154e+00  1.1937216492011526e+00  1.3775546183571059e+00  1.8253662849648782e+00  1.6382959204661669e+00  1.9705254655539755e+00  1.8703221571910533e+00  1.7072592214309601e+00  6.3449060070186603e+00  6.2662124028099058e+00  3.8154326551693649e+00  5.8553191259258934e+00  8.9599673735288548e+00  3.3234437236621512e+00  2.8832577404105004e+00  9.7173867131751379e+00  8.5663528022834416e+00  8.7492759063022270e+00  5.3899545134994993e+00  8.9716837551984607e-01  6.4143779209668335e+00  4.7921905992773217e+00  3.2759053760073118e+00  6.9479198171386383e+00  7.8049055934452136e+00  1.7363935768150760e+00  8.3967655315492191e+00  8.1473121919426337e+00  7.7445894516902660e+00  9.6703587107273190e+00  8.7382207555096301e+00  8.8499919986923832e+00  9.1545104586473673e+00  8.4521953471025721e+00  3.0599829210049450e+00  1.1210722199464482e+00  1.6351493098339995e+00  9.6808227871999861e+00  3.1537593543329856e+00  1.6479595134373011e+00  6.4483423000327633e+00  6.9983220436910312e+00  4.4108161131351364e+00  3.5929607440298432e+00  4.7121947114679950e+00  2.2067933723775877e+00  2.3369256254247346e+00  2.1309834957090259e+00  2.4449217078468588e-01  2.9955871762230073e+00  8.1729490096448103e+00  7.8011249688672697e+00  1.4101061424669512e+00  9.2182232410263829e+00  7.8515692437617099e+00  8.4681838690605957e+00  7.3188048407576201e+00  6.2127916416438635e+00  1.6851296761400150e+00  1.4426761843907119e+00  1.1430673354567220e+00  1.2284578128573749e+00  5.8862107589093791e+00  7.69472