<?xml version="1.0"?>
<VTKFile type="UnstructuredGrid"  version="0.1"  >
<UnstructuredGrid>
<Piece  NumberOfPoints="2513" NumberOfCells="4852">
<Points>
<DataArray  type="Float64"  NumberOfComponents="3"  format="ascii">-1 1 0  -1 -1 0  1 -1 0  1 1 0  0 -1 0  1 0 0  0 1 0  -1 0 0  0 0 0  -1 -0.5 0  -0.5 -1 0  -0.5 1 0  -1 0.5 0  1 -0.5 0  0.5 -1 0  1 0.5 0  0.5 1 0  0.4166666666666666 -0.4166666666666667 0  -0.4166666666666667 0.4166666666666667 0  -0.25 -0.5 0  0.5 0.25 0  -0.4861111111111112 -0.06944444444444445 0  0.0732758620689655 0.507183908045977 0  -0.625 -0.625 0  0.625 0.625 0  0.7380952380952381 -0.25 0  -0.7099116161616161 0.2105429292929293 0  -0.25 0.7380952380952381 0  0.105392156862745 -0.6348039215686275 0  0.6770833333333334 -0.6770833333333333 0  -0.6770833333333334 0.6770833333333334 0  0.3472222222222222 -0.06944444444444446 0  -0.7264957264957265 -0.3044871794871795 0  0.3141940982507127 0.7297313660835709 0  0.02049587951122483 -0.3227479397556124 0  -0.2690972222222223 0.1475694444444444 0  0.3859500089908372 -0.7274430156831472 0  -0.2228477945123298 -0.1761765495248019 0  0.2182539682539683 0.1884920634920635 0  0.75 0.375 0  -0.145442219440968 -0.7602211097204841 0  0.7088913690476191 0.0427827380952381 0  -0.75 -1 0  -1 -0.75 0  1 0.75 0  0.75 1 0  -0.7439982703698937 -0.04614153195464455 0  -0.4609235096577606 -0.3356498099556895 0  0.4063134471431929 0.4895621842856023 0  0.25 -1 0  -0.25 -1 0  -0.75 1 0  0.75 -1 0  -1 -0.25 0  -1 0.25 0  1 -0.25 0  -0.25 1 0  1 -0.75 0  -1 0.75 0  0.25 1 0  1 0.25 0  -0.4041423272138783 -0.7597141090712928 0  0.06500839607911253 0.7578103030529481 0  -0.1572801182352047 0.3838997021864289 0  -0.6528005242053915 0.4409494757946086 0  -0.4930160984848485 0.1544744318181818 0  -0.4732142857142858 0.7752976190476191 0  0.6398809523809523 -0.4538690476190476 0  0.5166054117396399 -0.2161233620965164 0  -0.002273787244753427 0.2232363985975174 0  0.1500564496765022 -0.1524955293952667 0  0.2016720420046758 -0.4410343282803009 0  -0.08495178036419618 0.6274139771124571 0  -0.8367311471133162 0.3642591720794645 0  -0.8333333333333334 -0.625 0  -0.594323836800685 -0.8231079456002283 0  -0.4466957714776065 -0.5349126855671806 0  0.8125 0.5625 0  0.78125 0.78125 0  0.5091392650016769 0.7947130883338923 0  0.125 -0.8382681931833136 0  -0.8184523809523809 -0.8184523809523809 0  -0.07781530426104531 -0.5819319697006881 0  0.5085055196703295 0.04967610411902112 0  0.2918471072074933 -0.276017202318847 0  0.5120763537765269 -0.5898771553229597 0  0.625 -0.8585349462365591 0  0.8158532234335381 -0.8158532234335381 0  -0.5198088446315396 0.5739411553684605 0  -0.8585349462365591 0.625 0  -0.8150493805516597 0.8156205699829586 0  0.8585349462365591 -0.625 0  -0.2688268348649726 0.5439331383603209 0  0.8242100426758139 -0.4436043596336612 0  0.5833756314287952 0.4479378157143976 0  0.8690476190476191 -0.125 0  -0.125 0.8690476190476191 0  -0.8692745600729823 0.125 0  0.8696725120759167 0.125 0  -0.625 0.8711516477451908 0  0.2339522463269718 0.3879558377955778 0  0.2453709502295031 0.5655822922838026 0  0.1730610651637797 0.02021709580868947 0  0.3245402594056757 -0.5644672020485209 0  -0.7291666666666666 -0.4816595441595442 0  -1 -0.375 0  -0.5811140848639904 -0.2127276307675001 0  0.673332592838314 0.2158348143233718 0  0.375 1 0  -0.5714768890989919 0.2985103444040069 0  -1 -0.125 0  -0.8453692574786325 -0.1875 0  -0.3144549134065865 -0.02408675326008025 0  -0.2898414972096258 -0.3336092734780093 0  -0.1075052092206287 -0.4224330421314983 0  -0.05043970703604117 -0.1652278959397459 0  0.6459672950297897 -0.1113415301525317 0  0.4645210271029513 0.6398480556579343 0  0.3512863754411909 0.0937979496253573 0  -0.6063160985568274 0.03891469652249891 0  -0.3428819444444445 0.8690476190476191 0  0.625 1 0  -0.1602164796159982 0.02697860906625157 0  0.04648110064133829 -0.4808416424239687 0  1 0.875 0  -0.3836102479201657 0.6484936449177356 0  -0.3776011723096096 0.263078478984336 0  -0.6024978259969829 -0.3949628096211138 0  0.125 1 0  0.2010781308272777 0.8456221018461906 0  0.2822509696388829 -0.845902544691141 0  -0.3285533674953515 -0.6289773550938936 0  0.3461306793221754 0.278777492464833 0  0.4737475672408696 -0.8508448959534423 0  0.2384632828836344 -0.7029523187242811 0  -0.004777287059791593 0.3759269695907358 0  -0.8499735021850066 -0.3912320205328522 0  0.1222536293721587 0.2963971539625205 0  -0.3769456520999688 -0.203572526805711 0  -0.2749617205755651 -0.8464290792698902 0  0.004805888512766143 -0.747174355248311 0  -0.125 -1 0  -0.06001061822252458 -0.8724007765244854 0  0.875 0.4375 0  0.854421179608893 0.271342359217786 0  0.875 1 0  -0.1499861095763589 0.2358309656934888 0  0.3381943639137225 0.8663061796405532 0  -0.7853090110442228 0.4998412775277108 0  0.7398165998560814 -0.5535192694951373 0  0.1580042122341573 -0.3100246140259917 0  -0.7291666666666667 -0.7142857142857142 0  -0.375 -1 0  0.6483368386154684 0.8514905990110488 0  -0.1295370103291928 -0.2826118305021242 0  0.07458201853700455 0.1123894386563915 0  0.6146465857036327 -0.3161203659316075 0  0.5551898493894731 -0.740296118159085 0  0.375 -1 0  0.482702798370208 -0.084133350091034 0  0.87890625 0.68359375 0  -0.05917195534525846 0.4971092425697621 0  0.1260710309213975 0.6343750312956699 0  0.8690476190476191 -0.3077066815262848 0  -0.2912010232560567 0.3668168386732139 0  -0.875 1 0  -1 0.875 0  1 -0.875 0  0.875 -1 0  -0.8689564281364567 -0.006189266075306407 0  -0.7449425635110547 0.08458938160051771 0  -0.7150266761936593 -0.1739444581417552 0  -0.5260034831318311 -0.711099823962112 0  -0.4724626808827322 -0.871722230709409 0  0.4734436795977052 0.377714794132168 0  -0.875 -1 0  -1 -0.875 0  0.6927189078571988 0.5156567235715964 0  -0.3742497615796874 -0.4296005251260107 0  -0.1969436423297711 -0.6387157229772615 0  -0.6179496409766825 -0.08933356056510935 0  -0.424405057115988 0.04452428810878029 0  -0.08479048335844169 0.1279607007132633 0  0.003830300099055113 0.8712085230656206 0  0.8748778838820267 -1.379218479898026e-05 0  -0.375 1 0  -0.625 1 0  1 0.125 0  -0.125 1 0  1 -0.375 0  1 -0.125 0  1 -0.625 0  0.625 -1 0  0.125 -1 0  -0.625 -1 0  -1 -0.625 0  -1 0.125 0  -1 0.375 0  -1 0.625 0  1 0.375 0  1 0.625 0  0.6325660748712082 0.3335187599557389 0  -0.06420945895056573 0.7549874027425891 0  -0.8769015540914771 0.2478802253893416 0  0.871875 0.871875 0  -0.6868091492840067 0.3270978624973681 0  -0.5363597469565949 0.412994850055505 0  -0.6803734992638302 0.5574295000651103 0  -0.7076253581162534 -0.8803439094224437 0  -0.8778089002295137 -0.5106896447504627 0  -0.3860184984222981 0.530566778071246 0  0.6109900617121508 0.1128453077697081 0  0.3896945134930274 -0.1915382873255086 0  0.7605656944697778 -0.06822134873122943 0  0.3576151269893478 0.5948388411612135 0  -0.5689902680792265 -0.5143596830118065 0  0.6262446286847614 -0.5735657901943212 0  0.2030558252325225 -0.5625263842513452 0  0.6123273142928579 0.7407533260723429 0  0.4016460890123554 -0.3042863223111857 0  -0.59039693199147 0.7578418819188018 0  0.7276932493917544 -0.3705808024528924 0  0.5222536818742854 -0.4713886230400014 0  -0.5101986527137737 0.8848365765607674 0  0.510560172809238 0.5356013299918891 0  -0.3603569195756083 0.75823710606415 0  0.1967279277813232 0.728226870058472 0  -0.6086880986371127 0.1545624071548516 0  -0.38105366729386 0.1511189987807864 0  -0.2944659463671584 -0.7359061804869591 0  0.5060729154966499 -0.3475227845833823 0  -0.09281616240412746 -0.06197858250969457 0  0.7649739583333334 0.6673177083333334 0  0.7628906249999999 0.890234375 0  -0.2666864184909611 0.2585504071132311 0  0.3635064892129658 0.3878003602709461 0  -0.2339409722222222 0.8901937905844155 0  -0.1718792125974916 -0.8957733325456778 0  0.1001768566329531 0.4023510017391879 0  0.3120260172693757 -0.4540546875576884 0  0.7804062804433681 0.1896628610854537 0  0.4087715451998049 0.187961780041608 0  -0.1584963477271457 0.5451611892421655 0  -0.8926817849258324 0.463022006336401 0  0.2338091473445219 -0.07576267331277289 0  0.08171112182813692 -0.2349087687359925 0  0.04635385178956847 -0.1044635073718474 0  -0.4377391632114205 -0.6448874471423088 0  -0.1907678351227189 0.6480215912813945 0  0.300605946475244 0.4741444604171038 0  -0.2145033720757486 -0.06751709909419711 0  0.6069191921170397 -0.005492331448357812 0  0.0214718770761248 0.6032397936031719 0  0.5476675683364878 0.8992752415326501 0  0.4387475014316537 0.9093708953002239 0  -0.4932997685306436 -0.4381009159993523 0  0.2515197695339056 -0.1791673369138964 0  -0.7291666666666667 -0.6088789682539681 0  -0.9166666666666667 -0.6875 0  0.620579540363709 -0.2122431523583302 0  -0.484950136419973 0.6719440339397442 0  0.2857044415400258 0.0137589173127316 0  -0.8945708364098356 -0.288306105327986 0  0.4043102720140535 0.7842914560451557 0  0.04123256238752064 -0.9026968245801402 0  0.2003676884403109 -0.9091888601740487 0  0.1068775558538842 -0.7373377130403223 0  -0.4804566783514427 -0.1763307203045643 0  0.108286342087769 -0.3993789328997278 0  -0.191883080105361 -0.3640821726430649 0  -0.07025064492006244 0.2984876656890053 0  -0.7039324641409584 0.788312126296613 0  -0.7311286585775438 0.8932502354831682 0  0.5171409396884947 0.1503852691889257 0  0.4229392823658633 -0.003216522184234835 0  -0.5621736087218259 -0.919558629836806 0  -0.626474064879544 -0.7266572613636506 0  0.2446828746617422 0.2867616783302419 0  0.1759429608742923 0.4776611759306416 0  -0.3468240303741654 -0.5260416435617549 0  -0.7465808808425306 0.4069574477998361 0  -0.7819962170660292 0.2802441065650652 0  -0.3742623214119594 -0.8547800509641984 0  0.1014498009713561 0.8506721983266377 0  0.4285217620918213 -0.5230190595570253 0  0.4091738370487775 -0.6256346204225141 0  0.78125 0.46875 0  0.90625 0.53125 0  -0.4791801348852565 0.2553992655702126 0  0.7843318610782772 -0.7086046956885941 0  0.8909728264971901 -0.7355183796514634 0  0.7041908166528879 -0.7830649143180282 0  0.7311821352
[...]
<PointData  Scalars="velocity-2"> 
<DataArray  type="Float64"  Name="velocity-2"  format="ascii">0.0000000000000000e+00  0.0000000000000000e+00  1.0000000000000000e+01  1.0000000000000000e+01  5.5884774635642440e+00  1.0000000000000000e+01  5.5886615208001906e+00  0.0000000000000000e+00  5.5884395717512598e+00  0.0000000000000000e+00  2.9436184475340430e+00  2.9435304416496062e+00  0.0000000000000000e+00  1.0000000000000000e+01  7.8893631495523806e+00  1.0000000000000000e+01  7.8893366619570306e+00  7.5241523327365707e+00  3.4096807112804872e+00  4.3128282317238709e+00  7.8891971601202773e+00  3.0216972535867987e+00  5.9447082378815983e+00  2.2270928013609099e+00  8.4271038872622199e+00  8.9060989759463407e+00  1.7309590883047679e+00  4.3128606385240706e+00  6.0985000684166932e+00  8.6484842438505680e+00  1.9235485314679652e+00  7.2153246445022443e+00  1.6333101565263346e+00  7.0666841870136201e+00  5.6888734056310648e+00  4.2115355090287414e+00  7.3881466295372595e+00  4.4559787734955441e+00  6.6283595613772297e+00  8.9562274137577234e+00  4.8577831979472821e+00  8.7830031156294890e+00  1.4945633931154321e+00  0.0000000000000000e+00  1.0000000000000000e+01  8.9562518526063712e+00  1.5300148400594467e+00  3.1632284831782487e+00  7.4784680252730507e+00  6.7747395599079523e+00  4.3130545294189879e+00  1.4943908339919867e+00  8.9563078544781565e+00  0.0000000000000000e+00  0.0000000000000000e+00  1.0000000000000000e+01  4.3127000896236165e+00  1.0000000000000000e+01  0.0000000000000000e+00  6.7746304122205618e+00  1.0000000000000000e+01  3.4790319225855741e+00  5.9049075715669987e+00  4.7971435167243142e+00  2.0655009285153505e+00  2.9829022155679090e+00  3.0942912635798168e+00  8.4905910867131418e+00  7.9612444737789652e+00  5.5772013508949847e+00  6.3103017624080948e+00  6.5516415680708766e+00  5.1656256636389166e+00  9.7901598605896500e-01  9.9931019889454531e-01  2.4045030984506299e+00  3.2427646834199155e+00  9.2184144766102829e+00  9.0874623572638722e+00  7.9289832275080974e+00  6.1916922677929538e+00  1.0880354086897142e+00  5.2014311348894928e+00  7.9262194252608102e+00  6.9654589427802422e+00  7.9416601112637748e+00  8.4271064344561015e+00  9.2324663239860367e+00  2.8311172221389240e+00  8.4875257802870963e-01  1.1083132577453825e+00  9.4108344603746232e+00  4.2129011901839579e+00  9.2674509297654186e+00  8.2491133618859802e+00  9.4547174406097092e+00  4.9626244041145151e+00  7.8455155749872774e-01  9.4573379902351036e+00  2.2271450871205691e+00  6.7008291852844213e+00  6.7534317047036021e+00  6.4182304273805677e+00  7.1133398284126468e+00  1.6175434699148534e+00  0.0000000000000000e+00  2.4806242593340335e+00  8.6325780035624096e+00  7.3396362303208509e+00  2.5360952828737942e+00  0.0000000000000000e+00  9.2741369520847128e-01  3.9685124033764736e+00  4.1007497102346626e+00  5.0515468161158026e+00  5.3386339661508968e+00  8.5164062185415652e+00  7.7344264266326359e+00  7.2335353995792495e+00  2.3354721929791498e+00  3.8146093228023341e+00  8.4271701353383701e+00  4.7818602052612684e+00  5.8153778876820459e+00  1.0000000000000000e+01  3.5921438110481079e+00  3.6250126662250106e+00  2.3573874602005915e+00  6.1919866405702422e+00  6.5487082677601363e+00  6.9219670576010914e+00  3.8923056107302139e+00  7.2102784393534582e+00  7.7748428550422020e+00  6.7215335098363242e+00  5.5649205620902240e+00  8.9992813827515505e-01  6.1786663029181979e+00  3.6287528770164279e+00  4.1801750405801030e+00  5.6121111173974674e+00  4.9625822134454030e+00  5.2908894033470961e+00  9.4795483491049364e+00  9.3936687958003500e+00  9.4795382302793652e+00  4.8346103191594461e+00  7.1747628266728372e+00  1.2851860365711663e+00  8.9133511537146575e+00  6.3475304028849537e+00  1.6175323734536040e+00  3.6394923605128291e+00  8.5264957120891438e+00  4.9393699851635757e+00  5.9508714175238921e+00  8.3829680891442120e+00  8.1280043811842724e+00  7.3395245115166903e+00  7.8139428214034714e+00  9.4958212301099483e+00  5.2949160822602819e+00  6.1968699209416265e+00  9.4547167252362634e+00  4.0933995846323041e+00  7.5034526915227440e-01  0.0000000000000000e+00  1.0000000000000000e+01  9.4795698131731854e+00  7.8641488591905939e-01  1.5243523112104498e+00  1.7008531881538618e+00  2.7959248750703551e+00  3.0984115579194742e+00  7.7735100393103123e+00  7.5031505377346996e-01  0.0000000000000000e+00  8.7146609548104443e+00  3.6434216632239425e+00  4.5914954755225361e+00  2.2679414010035370e+00  3.3668130205847007e+00  5.1664052580005553e+00  5.6071364935933072e+00  9.4790328804205881e+00  3.6397380326734412e+00  2.2271633457215572e+00  1.0000000000000000e+01  4.9625308566821626e+00  1.0000000000000000e+01  1.0000000000000000e+01  1.0000000000000000e+01  8.4271820713518402e+00  6.1919560138577152e+00  2.2272180976195131e+00  0.0000000000000000e+00  0.0000000000000000e+00  0.0000000000000000e+00  0.0000000000000000e+00  1.0000000000000000e+01  1.0000000000000000e+01  8.4593521460608105e+00  5.2698142372024401e+00  7.3888412506645185e-01  9.4665247915763633e+00  1.8667660890426088e+00  2.7370596658279784e+00  1.9043877154275046e+00  1.7443698499692715e+00  7.3346620217927194e-01  3.5789575429552438e+00  8.3672973920138123e+00  7.4046065402618897e+00  9.0006423238738478e+00  7.2617561125132148e+00  2.5502896599300389e+00  8.4324539773570724e+00  6.5580099196796215e+00  8.3730376725029547e+00  7.4577644136850658e+00  2.4272515699889428e+00  8.8623096657605043e+00  7.9857523898345857e+00  2.8856059199293687e+00  7.9350761378421026e+00  3.7195703150929709e+00  6.5284920991078774e+00  2.3216812328636509e+00  3.6061865124869219e+00  4.0759902157902443e+00  7.9156371688162181e+00  5.1258466319616778e+00  9.0191495844367964e+00  9.0104111083672631e+00  4.2243805286547627e+00  7.2880378704648860e+00  4.3975404346584535e+00  4.7215490052364766e+00  6.0736480022147363e+00  7.0570099493486360e+00  9.0839649012497592e+00  7.4893424898682452e+00  4.7907468970048139e+00  6.4439096642697036e-01  6.7001713939123508e+00  5.9851902696976049e+00  5.8146923226420633e+00  3.2928211662297655e+00  4.6236279131220392e+00  7.0052594392744103e+00  4.4998773232273201e+00  8.3499369060134292e+00  5.6937531706934585e+00  8.0955535443421009e+00  7.6215207472674020e+00  2.9810319325968164e+00  6.7815620513478043e+00  1.6175347327138569e+00  5.0056521800904719e-01  8.4082730595028270e+00  3.0282246634894232e+00  6.9376452844154013e+00  6.3305407507577627e-01  7.4695547387851944e+00  5.7898579651215014e+00  6.5455653271329357e+00  6.1056281442692102e+00  3.0535731131862924e+00  6.1123572198002494e+00  4.6178615094363424e+00  5.2394717187708970e+00  1.7660983350531612e+00  1.6060727656440914e+00  7.9636301698194600e+00  7.5518723907747205e+00  2.5893863007589450e+00  2.2185725101482343e+00  6.7502353433071471e+00  6.4315886284333619e+00  3.7933602509624444e+00  1.5147036390239017e+00  1.3049555502372741e+00  3.6435099161027815e+00  6.0797480963746526e+00  7.5764104409109407e+00  7.4911045474037499e+00  9.0874627532484542e+00  9.6098140953508651e+00  3.0608097135126142e+00  9.1004147679497223e+00  9.5461422022690261e+00  8.7631469101804917e+00  8.8770130945996151e+00  4.9219682371737300e-01  5.5937981432607276e-01  1.2914488250224982e+00  4.3990613419794906e+00  1.1996118155318092e+00  6.1463743700143192e-01  5.4518798140909053e-01  1.0436864625136635e+00  1.0330171511077251e+00  9.5534795917796398e+00  4.1149801719315962e+00  2.4777314196311040e+00  7.3553450263952218e+00  5.2089185907247177e+00  5.6986098973750945e+00  4.7460033873648335e+00  1.3847849553098572e+00  7.0635273599677149e+00  6.1724768020998164e+00  3.5774453153362362e+00  3.8893119665901805e+00  4.7170213375240572e-01  8.1594314467341302e+00  9.5643094483075686e+00  9.6117217189441746e+00  9.4811739633631333e+00  2.7774594120189948e+00  3.0998537308567156e+00  2.4007700455542329e+00  6.7319167159502511e+00  8.9374916676638065e+00  3.8978759751270080e+00  7.0979730649116766e+00  6.7000404373792728e+00  4.7836445471135693e+00  7.7741988009443475e+00  4.6854408561479213e+00  2.2102604059273889e+00  8.8906141076258915e+00  3.9790663750388324e+00  9.0826636178591329e+00  1.0319665854851603e+00  9.6128572165528094e+00  4.0270058408239351e-01  2.8602350512385222e+00  8.6146722506444089e+00  8.3269252605288084e+00  8.2727905761604763e+00  5.2784104407047510e+00  1.2706942567505553e+00  3.9271926438465199e-01  9.1733248006423747e+00  9.7288484224218195e+00  4.0040740115495028e+00  7.0589865930222713e+00  8.0112157220942581e+00  7.6159186189278518e+00  9.7287491224520828e+00  9.2184337052392884e+00  6.9317968605862328e+00  6.2111728377494195e+00  3.2940388651810304e+00  1.4544056228656594e+00  1.2434682740723884e+00  1.9886107920737583e+00  9.7285362894022018e+00  3.7637844048118324e-01  3.7679121186729780e-01  9.7288456429520256e+00  9.7275658858407503e+00  5.8928239785185381e+00  4.8370050095134615e-01  9.7272480101643346e+00  8.7871168505794817e+00  8.2464236014214141e+00  6.1366385039211853e+00  6.4832127848435546e+00  8.6925615205068141e+00  7.3858324150580836e+00  7.1867517008528994e+00  5.5971453799258164e+00  6.0002424270190859e+00  3.9272145727681651e-01  1.8680139960342488e+00  8.7589612707274043e+00  4.3235455184603317e+00  4.8303003555848356e+00  3.0876409934990297e+00  5.5627461459739687e+00  6.4855294957266532e+00  2.9039614046844098e+00  4.1144573920157113e+00  3.6379275058180736e+00  4.4606950363402040e+00  8.2274940717516163e+00  7.6319225290426740e+00  9.2585232302807601e+00  5.6174544879442658e+00  2.8704687099824189e+00  1.1513654857434459e+00  4.0668155490834712e+00  8.8840896189704353e+00  9.3195459695273311e+00  5.0053746612775640e-01  4.4457579276845660e-01  8.1745618752431639e+00  8.7306660052491019e+00  4.4813832008721146e+00  8.6775035178953512e+00  4.9581961670749575e+00  6.8336245812120300e+00  8.0830078179620219e+00  3.3293097227498265e+00  2.6522570653731043e+00  5.3585979690966319e+00  5.5358798078703870e+00  5.2672503287456971e+00  6.2724475120770089e+00  2.6401417145091921e+00  2.1237413334851478e+00  2.3271471184134671e+00  2.1581971674939746e+00  2.6878690072622198e+00  2.5877867170212303e+00  5.2142958795834993e+00  5.5738240969782744e+00  4.6450968027117856e+00  7.8974377236551874e+00  6.7962861241926547e+00  1.9956482467308845e+00  2.6539647650219744e+00  8.9463369895429672e+00  4.9055733415254235e+00  7.5084163774184436e+00  8.0749398380733624e+00  7.6068410698608773e+00  3.2941581267998177e+00  6.6103350161118382e+00  4.0490987439740778e+00  4.0737235735838144e+00  6.3406860091604775e+00  5.6291585563883491e+00  6.1692545337908857e+00  6.5699378047484105e+00  5.1923810633214718e+00  3.6557904971917052e+00  3.4674984017548165e+00  9.2516284579727568e+00  9.7381353460739764e+00  7.0789561600384605e+00  5.2866087443214060e-01  4.8362598431124582e+00  7.6858236553851675e+00  3.9205665679292419e+00  9.2783307485389077e+00  3.3466938365706200e+00  7.0028156040331604e+00  4.4432496764774854e+00  3.2388098173050919e+00  9.7056726904640787e+00  6.1914145964523715e-01  6.3016646881372322e+00  8.4259298778418241e+00  9.4951206243494628e+00  3.7554505823139156e-01  9.1142632958693302e+00  4.6405407750006171e+00  3.8677232154734185e+00  1.9077521760888254e+00  4.7317101861727873e-01  6.8412200545216066e+00  1.2450393255649208e+00  1.9972294412557361e+00  2.0354482829298362e+00  5.7574412277733211e+00  5.7656526877936516e+00  8.6926822602754825e+00  8.5860794166922680e+00  6.7743518487946028e+00  1.0000000000000000e+01  3.3676070693208615e+00  1.1408546586797965e+00  8.1028960691150456e+00  4.1338398849561795e+00  3.6362907120448358e+00  5.2418355734231996e+00  2.1863767484925338e+00  1.8625234342835806e+00  8.2181712262015587e+00  8.8317012145781835e+00  2.7225629819241859e+00  2.6162140258017885e+00  7.0591112330286823e+00  3.5544639208474242e+00  6.3736739109470397e+00  3.3907467014215396e+00  4.8649493759317721e+00  4.5390119116913086e+00  5.2077003744179153e+00  1.0000000000000000e+01  9.4254998209569152e+00  8.0268913969069331e+00  7.7228296634951343e+00  8.7583534799008189e-01  8.7056934171945173e+00  8.2685323032517815e+00  6.9711194235507907e+00  5.4556170770190091e+00  1.8626881835989808e+00  9.7243373839241958e+00  4.7309662011872105e+00  4.3513611343411451e+00  1.6853166794969694e+00  1.1131666346328475e+00  7.6517544892309006e+00  8.3966013676237470e+00  4.5736120330314405e+00  5.7597937209929357e+00  6.3723567941108037e+00  6.4277018615850281e+00  6.1600739107439404e+00  2.1928707265247067e+00  8.2500419190972227e+00  0.0000000000000000e+00  2.0453293688886776e+00  2.4642002554888931e+00  5.0563457555741813e+00  3.3659691204397153e+00  3.8901905788515356e+00  9.3260866221415721e+00  7.4979907286144014e+00  7.7133425164570557e+00  5.1799554523212548e+00  4.2491946553980076e-01  8.6717530598567780e+00  4.9556658719611137e+00  5.4750793307113081e+00  5.5016579250405213e+00  1.0000000000000000e+01  8.5389439327754406e+00  8.1932079917061724e+00  8.6091023270750053e+00  3.7519141132783953e+00  9.7399492391241278e+00  9.3490741571234697e+00  9.6971247585572353e+00  0.0000000000000000e+00  9.7399617691559044e+00  4.9940437309039112e+00  1.4382226312624704e+00  1.8598511356461793e+00  7.0863865360596474e+00  7.1054529747634323e+00  7.3204024570187434e+00  7.2439367895612596e+00  9.7118537003882519e+00  9.2323764374403190e+00  6.4273827334942712e+00  6.0279668665605906e+00  9.3483366990058270e-01  4.4455256945015078e+00  5.9496461931305893e+00  4.2319459443001382e+00  3.0459500806507700e+00  1.3534508702867714e+00  1.9512198463760746e+00  1.3092841034745144e+00  3.9358484380995793e+00  8.7005539682950737e+00  2.2919966646869034e+00  7.4959209331289518e+00  0.0000000000000000e+00  2.6973732452714199e+00  9.7195401210190617e+00  7.3912868469964732e-01  7.2762358564715148e+00  5.8470754755797927e+00  3.6814395349889324e+00  6.6016868276603313e+00  5.8654308625976439e+00  5.2912082747115035e+00  5.5868325276617732e+00  7.6790603085661946e+00  9.7276139742913070e+00  1.1825424658472834e+00  9.1846000177285223e+00  5.9279660557727611e+00  9.7341279190111099e+00  6.3127479985900559e+00  7.2144238477921654e+00  5.6117782766619388e+00  2.5464150248010253e+00  5.1364580690746733e+00  1.0000000000000000e+01  5.9626560155430726e+00  1.3305615966561430e+00  7.0052605042827469e+00  1.6628406475911022e+00  4.9566638563233996e+00  9.1774932667252855e+00  7.8908202791107867e+00  1.4813177551820016e+00  1.3588791011102146e+00  3.8535615728079367e+00  1.1157250743698870e+00  2.5307381035663128e+00  2.9595439384292899e+00  2.7302806455420034e+00  3.2366069778307787e+00  3.1166982137760848e+00  9.7275564535756782e+00  1.0000000000000000e+01  1.6437224584283492e+00  5.9742244795851382e+00  8.4331344893266564e+00  7.8047533676100773e+00  7.5483864635911457e+00  8.0629179860477223e+00  9.3708665279429795e+00  4.6409977829448810e+00  8.9843818365016777e+00  4.3683523800948381e+00  4.6294828065314881e+00  6.7827071309777525e+00  9.2764812011967255e+00  6.2551678538276665e+00  3.6946722438639275e+00  8.5812206915366112e+00  4.9409382898505978e+00  6.4020433344799397e+00  8.6134188925834945e+00  8.4987790533810266e+00  5.8931456625587062e+00  0.0000000000000000e+00  9.2914192580096913e+00  0.0000000000000000e+00  8.4140479758863034e+00  5.2793345190949301e+00  3.3011641451274185e+00  3.3259399735076927e+00  3.3733632579177693e+00  7.2464157566088234e+00  4.8929016562425174e+00  8.1595328136528895e+00  1.5594196943852399e+00  4.5217660326922475e+00  8.7967041858971946e+00  7.9617377906318207e+00  1.6176405108015701e+00  4.9061061051183605e+00  4.9581188067252135e+00  5.8434617901797790e+00  9.0838840508999894e+00  8.2203396633469339e+00  7.3412848526662051e+00  6.8614754744360589e+00  8.7459029444188729e+00  9.4683911195937434e+00  9.7397229995907040e+00  7.8857502695349213e+00  9.0009295097062325e-01  5.5888993439238321e+00  4.1244818091588403e-01  6.1895401593997121e+00  9.7397331409928221e+00  1.0000000000000000e+01  1.0000000000000000e+01  9.2184196781685106e+00  3.9791441400548533e+00  8.6927060773706444e+00  0.0000000000000000e+00  3.7551627042614749e-01  5.8930506050221698e+00  0.0000000000000000e+00  1.0000000000000000e+01  3.2943001680034238e+00  9.2184506036347287e+00  1.0000000000000000e+01  7.6161653116131012e+00  7.0592702856955691e+00  1.0000000000000000e+01  1.0000000000000000e+01  1.0000000000000000e+01  0.0000000000000000e+00  0.0000000000000000e+00  0.0000000000000000e+00  5.2784703816909646e+00  0.0000000000000000e+00  3.9793785200481704e+00  8.1595249619664969e+00  0.0000000000000000e+00  1.1235279674694858e+00  1.1236086733441553e+00  0.0000000000000000e+00  2.5876406126701572e+00  6.4858358111540797e+00  0.0000000000000000e+00  7.6160402254993063e+00  1.0000000000000000e+01  1.0000000000000000e+01  9.7399553027305181e+00  0.0000000000000000e+00  6.4858622031123705e+00  0.0000000000000000e+00  5.2782467653335781e+00  1.0000000000000000e+01  1.0000000000000000e+01  2.7611412860643041e+00  7.9657378107379921e+00  3.2627417234519451e-01  6.7236976628353000e+00  6.3906645948563696e+00  8.3304215624197404e+00  4.4739490376775111e+00  2.6011334890417479e+00  2.8747640654860898e+00  2.3355715111128514e+00  9.1740253478321119e+00  2.0453777733527483e+00  3.5406019547141249e-01  1.7482143527889786e+00  8.8235898085078261e+00  7.6103902673697632e-01  9.4740797581179570e-01  3.6934455409335448e-01  7.6636073656656822e-01  5.6304175499514142e-01  8.4365800219717457e-01  7.8470768076567110e-01  9.1998565613332630e+00  8.9127434679168704e+00  2.7501512040944989e+00  6.2209675109470766e+00  9.7128199319975472e+00  1.1042420527562737e+00  6.9374630020399950e+00  4.8159734396660632e+00  1.6591913687060176e+00  4.5060715245408183e+00  3.3938720147147561e+00  4.1502568342015413e+00  8.0357804690654433e+00  9.3300422546246100e+00  2.5277503023173113e+00  9.0454139329289358e+00  8.8093461013439107e+00  7.2389994169444352e+00  4.0053952996180762e+00  5.4019795068472556e+00  7.4602553252078234e+00  3.1004270884832410e+00  5.9830762472555996e+00  9.1751110960077042e+00  3.3707194354207313e+00  6.8011313267006921e+00  8.5476762371886750e+00  8.1063088065879683e+00  8.4989003721110343e+00  3.6186892322243142e-01  3.0729731118016113e+00  2.7346929206843766e+00  2.4081840081077934e+00  1.5878858054336917e+00  2.0010450317315969e+00  4.7095629689341285e+00  5.8173995723653285e+00  5.4644702031030672e+00  8.1375172613947200e+00  9.4822600285110674e+00  9.2961833913481442e+00  7.8571683505740042e+00  7.7065391480599361e+00  4.5510070572236430e+00  5.8462909810273773e+00  1.4548844221145456e+00  1.6758409255977529e+00  2.2082346738369205e+00  1.9867789740370521e+00  2.3789435803018733e+00  2.2611686784677234e+00  2.0688648753281846e+00  6.9059492303574785e+00  6.8347465040328963e+00  4.4393254806132560e+00  6.4577801409041973e+00  9.1460151705841835e+00  3.9114547174063090e+00  3.4252165480285961e+00  9.7685251272274272e+00  8.8199662961291594e+00  8.9718442821495028e+00  6.0201473939988253e+00  1.0960493807706080e+00  6.9684946529015761e+00  5.4388094119457611e+00  3.8594108579506390e+00  7.4424712568966704e+00  8.1809444876191115e+00  2.1031413633785578e+00  8.6788246318163775e+00  8.4699801259402197e+00  8.1297282289836375e+00  9.7299677952632333e+00  8.9626467608876474e+00  9.0551913769879988e+00  9.3064186751507805e+00  8.7249814021305880e+00  3.6216400042737016e+00  1.3672468537119637e+00  1.9831333857041087e+00  9.7385551137227733e+00  3.7252139152610955e+00  1.9983312394614343e+00  6.9989284687066586e+00  7.4864189660319180e+00  5.0561112484939601e+00  4.2024377614692465e+00  5.3594208198330948e+00  2.6543174263487663e+00  2.8047024341391174e+00  2.5663914017544598e+00  2.9960184184791983e-01  3.5502786031110580e+00  8.4914711669136409e+00  8.1778154210513136e+00  1.7146746733035769e+00  9.3588122187172509e+00  8.2205222291215634e+00  8.7383200153442875e+00  7.7650949162426857e+00  6.7860264064901736e+00  2.0425401595786323e+00  1.7537140088808507e+00  1.3937151055469257e+00  1.4966298361104460e+00  6.4864521489975724e+00  8.08733