<?xml version="1.0"?>
<VTKFile type="UnstructuredGrid"  version="0.1"  >
<UnstructuredGrid>
<Piece  NumberOfPoints="2513" NumberOfCells="4852">
<Points>
<DataArray  type="Float64"  NumberOfComponents="3"  format="ascii">-1 1 0  -1 -1 0  1 -1 0  1 1 0  0 -1 0  1 0 0  0 1 0  -1 0 0  0 0 0  -1 -0.5 0  -0.5 -1 0  -0.5 1 0  -1 0.5 0  1 -0.5 0  0.5 -1 0  1 0.5 0  0.5 1 0  0.4166666666666666 -0.4166666666666667 0  -0.4166666666666667 0.4166666666666667 0  -0.25 -0.5 0  0.5 0.25 0  -0.4861111111111112 -0.06944444444444445 0  0.0732758620689655 0.507183908045977 0  -0.625 -0.625 0  0.625 0.625 0  0.7380952380952381 -0.25 0  -0.7099116161616161 0.2105429292929293 0  -0.25 0.7380952380952381 0  0.105392156862745 -0.6348039215686275 0  0.6770833333333334 -0.6770833333333333 0  -0.6770833333333334 0.6770833333333334 0  0.3472222222222222 -0.06944444444444446 0  -0.7264957264957265 -0.3044871794871795 0  0.3141940982507127 0.7297313660835709 0  0.02049587951122483 -0.3227479397556124 0  -0.2690972222222223 0.1475694444444444 0  0.3859500089908372 -0.7274430156831472 0  -0.2228477945123298 -0.1761765495248019 0  0.2182539682539683 0.1884920634920635 0  0.75 0.375 0  -0.145442219440968 -0.7602211097204841 0  0.7088913690476191 0.0427827380952381 0  -0.75 -1 0  -1 -0.75 0  1 0.75 0  0.75 1 0  -0.7439982703698937 -0.04614153195464455 0  -0.4609235096577606 -0.3356498099556895 0  0.4063134471431929 0.4895621842856023 0  0.25 -1 0  -0.25 -1 0  -0.75 1 0  0.75 -1 0  -1 -0.25 0  -1 0.25 0  1 -0.25 0  -0.25 1 0  1 -0.75 0  -1 0.75 0  0.25 1 0  1 0.25 0  -0.4041423272138783 -0.7597141090712928 0  0.06500839607911253 0.7578103030529481 0  -0.1572801182352047 0.3838997021864289 0  -0.6528005242053915 0.4409494757946086 0  -0.4930160984848485 0.1544744318181818 0  -0.4732142857142858 0.7752976190476191 0  0.6398809523809523 -0.4538690476190476 0  0.5166054117396399 -0.2161233620965164 0  -0.002273787244753427 0.2232363985975174 0  0.1500564496765022 -0.1524955293952667 0  0.2016720420046758 -0.4410343282803009 0  -0.08495178036419618 0.6274139771124571 0  -0.8367311471133162 0.3642591720794645 0  -0.8333333333333334 -0.625 0  -0.594323836800685 -0.8231079456002283 0  -0.4466957714776065 -0.5349126855671806 0  0.8125 0.5625 0  0.78125 0.78125 0  0.5091392650016769 0.7947130883338923 0  0.125 -0.8382681931833136 0  -0.8184523809523809 -0.8184523809523809 0  -0.07781530426104531 -0.5819319697006881 0  0.5085055196703295 0.04967610411902112 0  0.2918471072074933 -0.276017202318847 0  0.5120763537765269 -0.5898771553229597 0  0.625 -0.8585349462365591 0  0.8158532234335381 -0.8158532234335381 0  -0.5198088446315396 0.5739411553684605 0  -0.8585349462365591 0.625 0  -0.8150493805516597 0.8156205699829586 0  0.8585349462365591 -0.625 0  -0.2688268348649726 0.5439331383603209 0  0.8242100426758139 -0.4436043596336612 0  0.5833756314287952 0.4479378157143976 0  0.8690476190476191 -0.125 0  -0.125 0.8690476190476191 0  -0.8692745600729823 0.125 0  0.8696725120759167 0.125 0  -0.625 0.8711516477451908 0  0.2339522463269718 0.3879558377955778 0  0.2453709502295031 0.5655822922838026 0  0.1730610651637797 0.02021709580868947 0  0.3245402594056757 -0.5644672020485209 0  -0.7291666666666666 -0.4816595441595442 0  -1 -0.375 0  -0.5811140848639904 -0.2127276307675001 0  0.673332592838314 0.2158348143233718 0  0.375 1 0  -0.5714768890989919 0.2985103444040069 0  -1 -0.125 0  -0.8453692574786325 -0.1875 0  -0.3144549134065865 -0.02408675326008025 0  -0.2898414972096258 -0.3336092734780093 0  -0.1075052092206287 -0.4224330421314983 0  -0.05043970703604117 -0.1652278959397459 0  0.6459672950297897 -0.1113415301525317 0  0.4645210271029513 0.6398480556579343 0  0.3512863754411909 0.0937979496253573 0  -0.6063160985568274 0.03891469652249891 0  -0.3428819444444445 0.8690476190476191 0  0.625 1 0  -0.1602164796159982 0.02697860906625157 0  0.04648110064133829 -0.4808416424239687 0  1 0.875 0  -0.3836102479201657 0.6484936449177356 0  -0.3776011723096096 0.263078478984336 0  -0.6024978259969829 -0.3949628096211138 0  0.125 1 0  0.2010781308272777 0.8456221018461906 0  0.2822509696388829 -0.845902544691141 0  -0.3285533674953515 -0.6289773550938936 0  0.3461306793221754 0.278777492464833 0  0.4737475672408696 -0.8508448959534423 0  0.2384632828836344 -0.7029523187242811 0  -0.004777287059791593 0.3759269695907358 0  -0.8499735021850066 -0.3912320205328522 0  0.1222536293721587 0.2963971539625205 0  -0.3769456520999688 -0.203572526805711 0  -0.2749617205755651 -0.8464290792698902 0  0.004805888512766143 -0.747174355248311 0  -0.125 -1 0  -0.06001061822252458 -0.8724007765244854 0  0.875 0.4375 0  0.854421179608893 0.271342359217786 0  0.875 1 0  -0.1499861095763589 0.2358309656934888 0  0.3381943639137225 0.8663061796405532 0  -0.7853090110442228 0.4998412775277108 0  0.7398165998560814 -0.5535192694951373 0  0.1580042122341573 -0.3100246140259917 0  -0.7291666666666667 -0.7142857142857142 0  -0.375 -1 0  0.6483368386154684 0.8514905990110488 0  -0.1295370103291928 -0.2826118305021242 0  0.07458201853700455 0.1123894386563915 0  0.6146465857036327 -0.3161203659316075 0  0.5551898493894731 -0.740296118159085 0  0.375 -1 0  0.482702798370208 -0.084133350091034 0  0.87890625 0.68359375 0  -0.05917195534525846 0.4971092425697621 0  0.1260710309213975 0.6343750312956699 0  0.8690476190476191 -0.3077066815262848 0  -0.2912010232560567 0.3668168386732139 0  -0.875 1 0  -1 0.875 0  1 -0.875 0  0.875 -1 0  -0.8689564281364567 -0.006189266075306407 0  -0.7449425635110547 0.08458938160051771 0  -0.7150266761936593 -0.1739444581417552 0  -0.5260034831318311 -0.711099823962112 0  -0.4724626808827322 -0.871722230709409 0  0.4734436795977052 0.377714794132168 0  -0.875 -1 0  -1 -0.875 0  0.6927189078571988 0.5156567235715964 0  -0.3742497615796874 -0.4296005251260107 0  -0.1969436423297711 -0.6387157229772615 0  -0.6179496409766825 -0.08933356056510935 0  -0.424405057115988 0.04452428810878029 0  -0.08479048335844169 0.1279607007132633 0  0.003830300099055113 0.8712085230656206 0  0.8748778838820267 -1.379218479898026e-05 0  -0.375 1 0  -0.625 1 0  1 0.125 0  -0.125 1 0  1 -0.375 0  1 -0.125 0  1 -0.625 0  0.625 -1 0  0.125 -1 0  -0.625 -1 0  -1 -0.625 0  -1 0.125 0  -1 0.375 0  -1 0.625 0  1 0.375 0  1 0.625 0  0.6325660748712082 0.3335187599557389 0  -0.06420945895056573 0.7549874027425891 0  -0.8769015540914771 0.2478802253893416 0  0.871875 0.871875 0  -0.6868091492840067 0.3270978624973681 0  -0.5363597469565949 0.412994850055505 0  -0.6803734992638302 0.5574295000651103 0  -0.7076253581162534 -0.8803439094224437 0  -0.8778089002295137 -0.5106896447504627 0  -0.3860184984222981 0.530566778071246 0  0.6109900617121508 0.1128453077697081 0  0.3896945134930274 -0.1915382873255086 0  0.7605656944697778 -0.06822134873122943 0  0.3576151269893478 0.5948388411612135 0  -0.5689902680792265 -0.5143596830118065 0  0.6262446286847614 -0.5735657901943212 0  0.2030558252325225 -0.5625263842513452 0  0.6123273142928579 0.7407533260723429 0  0.4016460890123554 -0.3042863223111857 0  -0.59039693199147 0.7578418819188018 0  0.7276932493917544 -0.3705808024528924 0  0.5222536818742854 -0.4713886230400014 0  -0.5101986527137737 0.8848365765607674 0  0.510560172809238 0.5356013299918891 0  -0.3603569195756083 0.75823710606415 0  0.1967279277813232 0.728226870058472 0  -0.6086880986371127 0.1545624071548516 0  -0.38105366729386 0.1511189987807864 0  -0.2944659463671584 -0.7359061804869591 0  0.5060729154966499 -0.3475227845833823 0  -0.09281616240412746 -0.06197858250969457 0  0.7649739583333334 0.6673177083333334 0  0.7628906249999999 0.890234375 0  -0.2666864184909611 0.2585504071132311 0  0.3635064892129658 0.3878003602709461 0  -0.2339409722222222 0.8901937905844155 0  -0.1718792125974916 -0.8957733325456778 0  0.1001768566329531 0.4023510017391879 0  0.3120260172693757 -0.4540546875576884 0  0.7804062804433681 0.1896628610854537 0  0.4087715451998049 0.187961780041608 0  -0.1584963477271457 0.5451611892421655 0  -0.8926817849258324 0.463022006336401 0  0.2338091473445219 -0.07576267331277289 0  0.08171112182813692 -0.2349087687359925 0  0.04635385178956847 -0.1044635073718474 0  -0.4377391632114205 -0.6448874471423088 0  -0.1907678351227189 0.6480215912813945 0  0.300605946475244 0.4741444604171038 0  -0.2145033720757486 -0.06751709909419711 0  0.6069191921170397 -0.005492331448357812 0  0.0214718770761248 0.6032397936031719 0  0.5476675683364878 0.8992752415326501 0  0.4387475014316537 0.9093708953002239 0  -0.4932997685306436 -0.4381009159993523 0  0.2515197695339056 -0.1791673369138964 0  -0.7291666666666667 -0.6088789682539681 0  -0.9166666666666667 -0.6875 0  0.620579540363709 -0.2122431523583302 0  -0.484950136419973 0.6719440339397442 0  0.2857044415400258 0.0137589173127316 0  -0.8945708364098356 -0.288306105327986 0  0.4043102720140535 0.7842914560451557 0  0.04123256238752064 -0.9026968245801402 0  0.2003676884403109 -0.9091888601740487 0  0.1068775558538842 -0.7373377130403223 0  -0.4804566783514427 -0.1763307203045643 0  0.108286342087769 -0.3993789328997278 0  -0.191883080105361 -0.3640821726430649 0  -0.07025064492006244 0.2984876656890053 0  -0.7039324641409584 0.788312126296613 0  -0.7311286585775438 0.8932502354831682 0  0.5171409396884947 0.1503852691889257 0  0.4229392823658633 -0.003216522184234835 0  -0.5621736087218259 -0.919558629836806 0  -0.626474064879544 -0.7266572613636506 0  0.2446828746617422 0.2867616783302419 0  0.1759429608742923 0.4776611759306416 0  -0.3468240303741654 -0.5260416435617549 0  -0.7465808808425306 0.4069574477998361 0  -0.7819962170660292 0.2802441065650652 0  -0.3742623214119594 -0.8547800509641984 0  0.1014498009713561 0.8506721983266377 0  0.4285217620918213 -0.5230190595570253 0  0.4091738370487775 -0.6256346204225141 0  0.78125 0.46875 0  0.90625 0.53125 0  -0.4791801348852565 0.2553992655702126 0  0.7843318610782772 -0.7086046956885941 0  0.8909728264971901 -0.7355183796514634 0  0.7041908166528879 -0.7830649143180282 0  0.7311821352
[...]
<PointData  Scalars="velocity-2"> 
<DataArray  type="Float64"  Name="velocity-2"  format="ascii">0.0000000000000000e+00  0.0000000000000000e+00  1.0000000000000000e+01  1.0000000000000000e+01  1.0507173580875251e-01  1.0000000000000000e+01  1.0511541725930461e-01  0.0000000000000000e+00  1.0651924031927902e-01  0.0000000000000000e+00  1.0694928166529545e-04  1.0421527954432937e-04  0.0000000000000000e+00  1.0000000000000000e+01  4.1295513418482201e+00  1.0000000000000000e+01  4.1325515654819620e+00  2.7974022039851181e+00  4.4321039138301512e-04  5.1709725414254828e-03  4.1376549862055478e+00  1.3866452305049464e-04  2.2215276865872349e-01  1.1777045709443079e-05  6.3803388098087668e+00  8.1526617336629670e+00  2.2421602490534652e-06  5.1280421345596718e-03  2.9982712244423243e-01  7.2564641079995340e+00  4.2797790449189942e-06  1.8855310293840644e+00  1.5401410735159152e-06  1.5350400209247534e+00  1.3110916168633938e-01  3.9509328723490254e-03  2.3657584765864881e+00  7.4594574871563145e-03  7.7570099441502294e-01  8.3077512262889570e+00  2.0381406537001410e-02  7.7435844665584996e+00  9.7293584649533221e-07  0.0000000000000000e+00  1.0000000000000000e+01  8.3118199250604796e+00  1.0951957827053447e-06  2.0858069168185688e-04  2.6437724619786391e+00  9.7778281843253945e-01  4.9661188455392725e-03  9.9177631674843411e-07  8.3178989010744253e+00  0.0000000000000000e+00  0.0000000000000000e+00  1.0000000000000000e+01  5.1720766411175447e-03  1.0000000000000000e+01  0.0000000000000000e+00  9.8189342373769029e-01  1.0000000000000000e+01  5.3263351353981562e-04  2.0471578646567332e-01  1.7283299157091685e-02  6.5622470151252597e-06  1.2091793354745721e-04  1.7175652349798231e-04  6.6361712688852927e+00  4.4315625599060260e+00  1.0398738549342654e-01  4.4255136555184371e-01  6.7895434077097006e-01  4.1645319862915753e-02  1.5579830147207116e-07  1.6214978249032658e-07  2.1159599359323489e-05  2.6959841607542679e-04  8.9916821417108181e+00  8.6737091371690980e+00  4.2933761081136996e+00  3.5695167655265753e-01  2.3801533363351701e-07  4.5309077288650551e-02  4.2841565672878081e+00  1.3236854060003480e+00  4.3485124623953650e+00  6.3771348154605416e+00  9.0252153017231098e+00  7.6628424299933308e-05  9.5197408435447753e-08  2.4253739970364137e-07  9.3657336646114491e+00  3.9665403800325915e-03  9.1029928060051954e+00  5.6330116033848228e+00  9.4393736942169593e+00  2.5447472850460388e-02  7.1004690062845007e-08  9.4461124715263498e+00  1.1059716808639614e-05  8.7367820414877584e-01  9.4909845587811281e-01  5.3958383639403851e-01  1.6397893731634363e+00  1.5530860717114753e-06  0.0000000000000000e+00  2.5865483733491455e-05  7.1961518903309489e+00  2.2160328957228574e+00  3.0715442484254715e-05  0.0000000000000000e+00  1.2794386901274607e-07  2.0861975776667644e-03  2.8835282520817953e-03  3.1672187135366882e-02  6.1290137077607436e-02  6.7371070852158503e+00  3.5412645502746392e+00  1.9332087978889252e+00  1.5987283070902094e-05  1.3464600883310791e-03  6.3810826359921071e+00  1.6796543846283773e-02  1.6998278311541193e-01  1.0000000000000000e+01  7.3424931764644276e-04  8.0696819198059183e-04  1.7875323374695864e-05  3.5195008646522546e-01  6.7783451468004052e-01  1.2361673744796045e+00  1.6853580461896772e-03  1.8786526932914034e+00  3.6892147923182921e+00  9.0517159307700357e-01  1.0130412076768480e-01  1.1601602503075930e-07  3.4952609089022973e-01  8.0849484070259477e-04  3.6946440554774785e-03  1.1123017950688928e-01  2.5689081994341924e-02  5.5391237789782902e-02  9.4778660108488584e+00  9.3370944111083158e+00  9.4771646572430015e+00  1.8990879789103538e-02  1.7863937363965663e+00  4.6599686286229904e-07  8.1720517868058149e+00  4.7576169109915373e-01  1.5237513316241395e-06  8.0463329877184528e-04  6.7813827699530327e+00  2.4332237115248043e-02  2.2568771076581970e-01  6.1974991771384627e+00  5.1205697281700404e+00  2.2180080279512073e+00  3.8383313226248861e+00  9.5003042902029691e+00  5.6226846179867500e-02  3.6027655741883019e-01  9.4408211885319062e+00  2.8996923066257605e-03  5.8536271447769097e-08  0.0000000000000000e+00  1.0000000000000000e+01  9.4833508905576167e+00  7.6155631680191301e-08  1.1071796374091242e-06  1.9838821681778281e-06  6.9966161300736034e-05  1.7837997228959705e-04  3.6855232062109171e+00  6.1703994827916538e-08  0.0000000000000000e+00  7.4983260237520577e+00  8.4966387857752525e-04  1.0509802978367986e-02  1.3499835412855837e-05  3.8927170224449070e-04  4.1662578346188688e-02  1.1097127582417995e-01  9.4771780277039799e+00  7.8501254537507222e-04  1.1064179571926411e-05  1.0000000000000000e+01  2.5444567525910507e-02  1.0000000000000000e+01  1.0000000000000000e+01  1.0000000000000000e+01  6.3785188968948425e+00  3.5267689549019848e-01  1.1298845570255635e-05  0.0000000000000000e+00  0.0000000000000000e+00  0.0000000000000000e+00  0.0000000000000000e+00  1.0000000000000000e+01  1.0000000000000000e+01  6.5096107623588448e+00  5.2679638529457527e-02  6.3357689708532553e-08  9.4620403286739023e+00  3.3583835351133576e-06  5.7007211485629747e-05  3.9696260185363737e-06  2.4070871699203493e-06  5.9698060231286637e-08  6.9271186697481793e-04  6.1306866315951511e+00  2.4226772327465818e+00  8.4369719827578180e+00  2.0117408428884591e+00  3.2748372469805113e-05  6.3997118671885911e+00  6.8742159739480924e-01  6.1521438016097090e+00  2.5804173429331083e+00  2.1703266058456982e-05  8.0162064113512397e+00  4.5265721452058418e+00  9.0880030421537153e-05  4.3217156451419809e+00  1.0321568995196085e-03  6.5675705174177013e-01  1.5318509135161814e-05  7.7106201550587988e-04  2.7672945882326063e-03  4.2407025490809689e+00  3.7971848780751334e-02  8.4900344371139820e+00  8.4638844884852151e+00  4.0532708299913815e-03  2.0837414091359334e+00  6.3541484562022518e-03  1.4601497368986249e-02  2.8521562940577244e-01  1.5108512378123502e+00  8.6671102072901469e+00  2.6789130530665193e+00  1.7061261128101069e-02  4.2520204968218346e-08  8.7239354853438733e-01  2.4049880232876000e-01  1.7047425969023916e-01  3.0807415774368241e-04  1.1441543083271499e-02  1.4018487342862795e+00  8.2578374098958018e-03  6.0543045334334717e+00  1.3165348896310911e-01  4.9842972652218904e+00  3.1252678998018517e+00  1.2788413512986361e-04  9.9458308598330403e-01  1.5280802523785265e-06  2.4770146162005037e-08  6.3025744571808193e+00  1.4039555635900767e-04  1.2657257405570417e+00  4.0124648521278188e-08  2.6182989783744337e+00  1.6193158779258743e-01  6.7151066643477386e-01  3.0259071123781334e-01  1.5239200018924613e-04  3.0685962239722914e-01  1.1174866110759117e-02  4.9254554896394888e-02  2.4353850419593680e-06  1.3546045696062258e-06  4.4355752292193049e+00  2.8873142234227998e+00  3.7017060381450567e-05  1.1402353806878194e-05  9.4472975646857493e-01  5.5389654040071334e-01  1.2562092304417294e-03  1.0504882531423166e-06  4.7136074375596050e-07  8.3715285480894831e-04  2.8835979231514852e-01  2.9729353872020878e+00  2.6855938936905508e+00  8.6738191733386305e+00  9.6543364496388762e+00  1.5615488738151919e-04  8.7100210528214959e+00  9.5695857986877240e+00  7.6726883070280021e+00  8.0579685082915731e+00  2.2864158693276439e-08  2.8600013070721476e-08  4.8411622972313474e-07  6.3353366494698464e-03  3.6057693652355834e-07  4.3009647523079191e-08  2.9673121413375953e-08  2.0295895843529740e-07  1.7119944541151380e-07  9.5804208486530200e+00  3.0708697867727164e-03  2.5052813368208889e-05  2.2707672449582232e+00  4.5950461300110990e-02  1.3338930030285140e-01  1.5278592661005312e-02  6.9415172210153326e-07  1.5261640248879023e+00  3.4451302078410462e-01  6.9659859056467040e-04  1.6553224966879315e-03  2.2849941111706097e-08  5.2533116387994436e+00  9.5970971048421720e+00  9.6541733048096976e+00  9.4802090623758772e+00  6.7116572824827664e-05  1.7255449429915049e-04  1.9814946531844203e-05  9.2207122697384947e-01  8.2564847522928169e+00  1.6837006000078696e-03  1.6030238845993960e+00  8.7432272411212064e-01  1.6707810268071447e-02  3.6883066264554705e+00  1.3245559101021235e-02  1.0514257975891312e-05  8.1045382174359926e+00  2.1187645989811559e-03  8.6602078397342819e+00  1.8693339281666580e-07  9.6583409163053169e+00  1.6406449481145941e-08  8.4449433651761978e-05  7.1267307823851569e+00  5.9639546067955518e+00  5.7319217179474853e+00  5.3176330509360187e-02  4.4083020204687189e-07  1.4431709054969693e-08  8.8900362513546174e+00  9.7819506719135667e+00  2.2503397006361958e-03  1.5195410825422173e+00  4.6335512365696321e+00  3.1117643459314626e+00  9.7855897577169753e+00  8.9959037609494246e+00  1.2559593865875274e+00  3.6866290824115555e-01  3.0866579832196936e-04  8.7019557944935426e-07  3.7630377341371278e-07  5.0255697032795765e-06  9.7854263728441495e+00  1.3369457183955777e-08  1.5209570582239222e-08  9.7812022696087944e+00  9.7847529557672299e+00  1.9999703875756344e-01  2.1801462822787436e-08  9.7808519600508586e+00  7.7645905003029645e+00  5.6212649631299110e+00  3.2177747857022126e-01  6.0816892606346484e-01  7.4175089708437412e+00  2.3597947541394175e+00  1.8141603170780429e+00  1.0876817274783439e-01  2.4729039180685131e-01  1.4714789075309023e-08  3.5857223401786189e-06  7.6662555774245211e+00  5.3037702683278939e-03  1.8646840768397732e-02  1.6651079698684840e-04  1.0074679587771709e-01  6.1022553648789701e-01  9.5720315089466818e-05  3.0458307819328958e-03  8.2300841361643685e-04  7.4478828272916747e-03  5.5428873840832296e+00  3.1616664306425557e+00  9.0810169027764793e+00  1.1248385015637916e-01  8.9280677972385005e-05  2.9120431169934691e-07  2.6938479386878897e-03  8.0827364748180539e+00  9.2063062393580726e+00  2.5474543462079688e-08  1.9902461644148264e-08  5.3166035692415967e+00  7.5607025681059836e+00  8.0579414622634817e-03  7.3680367020939554e+00  2.5683399722299334e-02  1.0799169746946911e+00  4.9341286823374366e+00  3.4180868557423896e-04  4.5105117324505426e-05  6.4725155697204370e-02  9.4727188202335111e-02  5.2619650082482122e-02  4.1628368732779802e-01  4.3409307685082433e-05  8.6410047129444012e-06  1.6460209058106311e-05  9.4778993550880531e-06  4.8863196275172326e-05  3.4752045343793595e-05  4.6482978493163268e-02  1.0227402006782117e-01  1.1989885588067305e-02  4.1698507897522950e+00  1.0195460538987644e+00  5.4661974437395991e-06  4.5692230885826634e-05  8.2784910991924416e+00  2.2577952353425176e-02  2.7403431439958776e+00  4.9006114389397943e+00  3.0749420763527309e+00  3.0494422789449486e-04  7.5430528216807824e-01  2.4987657552844626e-03  2.7416548821197545e-03  4.7150777335767374e-01  1.1652657973085119e-01  3.4172696738776887e-01  7.0310829533345032e-01  4.4084799104242428e-02  8.7622535723145395e-04  5.0253360004844192e-04  9.0646666022404716e+00  9.7909629132655098e+00  1.5630868057123029e+00  2.7868041443604454e-08  1.9071559386088482e-02  3.3572213668646063e+00  1.8267192270534655e-03  9.1222702945177527e+00  3.5682131939304874e-04  1.3980693700555558e+00  7.2203484779216594e-03  2.6044235271269743e-04  9.7584705919659687e+00  3.9319944298461224e-08  4.3749425021989552e-01  6.3726680905086077e+00  9.5065560079129732e+00  1.3203329100663895e-08  8.7436188942911013e+00  1.1805685691682870e-02  1.6006738273316957e-03  4.0747396365374622e-06  2.2432607842592536e-08  1.0933232339096879e+00  3.9073436059114656e-07  5.3285760436859075e-06  6.2981462610896973e-06  1.5075248415968143e-01  1.5371587812940374e-01  7.4273671455953503e+00  7.0167549518989656e+00  9.8455002273777659e-01  1.0000000000000000e+01  3.9233936484619792e-04  2.8858712056822755e-07  5.0153572524026435e+00  3.1965396271252233e-03  8.3852306748927283e-04  4.9525267208391559e-02  1.0267895117132564e-05  3.4062972838292460e-06  5.5046299239274967e+00  7.9073175845968073e+00  5.4231655001483678e-05  3.9826148650477176e-05  1.5145074910844072e+00  6.6464750624834390e-04  4.9797430166050888e-01  4.1026348402744552e-04  2.0631424564680961e-02  9.2219317920799598e-03  4.6037652909971166e-02  1.0000000000000000e+01  9.3905119209878176e+00  4.7003219321977570e+00  3.4922918857478744e+00  1.0654945566336225e-07  7.4665024907746966e+00  5.7156450409793962e+00  1.3358543631925031e+00  7.9926077138505067e-02  3.3181008992011682e-06  9.7810378405685494e+00  1.4622364904657273e-02  5.6640226527103609e-03  1.9370686000223922e-06  2.5380475793074496e-07  3.2346072410350604e+00  6.2509657104590133e+00  1.0116318914544016e-02  1.5198698606084390e-01  4.9925239905015817e-01  5.4970887488900910e-01  3.3667364110498121e-01  1.0199748892476947e-05  5.6380951961033157e+00  0.0000000000000000e+00  6.3544116898527378e-06  2.3631117269940362e-05  3.2172141364772089e-02  3.8594893792868339e-04  1.6912047761018980e-03  9.2150712217807964e+00  2.7074485685600780e+00  3.4552815561718995e+00  4.3141868402054903e-02  1.8872960557080063e-08  7.3426003391412964e+00  2.5387842368954198e-02  8.3779045060021762e-02  8.7862342565775853e-02  1.0000000000000000e+01  6.8269087221672295e+00  5.3969234874642202e+00  7.1060797756158927e+00  1.1446051036494761e-03  9.7960483026032215e+00  9.2571443528674742e+00  9.7558232020120101e+00  0.0000000000000000e+00  9.7999179157668284e+00  2.7791934928302123e-02  8.0368204241850363e-07  3.4210644805387261e-06  1.5821022007566370e+00  1.6213383382034181e+00  2.1693329962357351e+00  1.9634804362096847e+00  9.7658831942701134e+00  9.0246257147061257e+00  5.5072492044540922e-01  2.6111703308750994e-01  1.2719206234458270e-07  7.1497363263664272e-03  2.2515721445227427e-01  4.2288040488428439e-03  1.5427972067622023e-04  6.2913125074434122e-07  4.8998452535075352e-06  5.3920788880795983e-07  1.8794935245264866e-03  7.4501949287305163e+00  1.4412906657408515e-05  2.7015543332853356e+00  0.0000000000000000e+00  5.2313444744469610e-05  9.7764250900923173e+00  6.1047428274657787e-08  2.0531405035347845e+00  1.8219172097581565e-01  9.2977629663857091e-04  7.4068306310046650e-01  1.8884375909610196e-01  5.5711743073396283e-02  1.0575307754397223e-01  3.3312899321917380e+00  9.7796796147516023e+00  3.4016672048656788e-07  8.9111434427143923e+00  2.1562070419241253e-01  9.7892958606767522e+00  4.4857238383918258e-01  1.8827802318126756e+00  1.1165908114284594e-01  3.3164527424018349e-05  3.8802975563848457e-02  1.0000000000000000e+01  2.2985416720111104e-01  5.6590227140691181e-07  1.4047701658219214e+00  1.7730649517036405e-06  2.5685383587941101e-02  8.9011657581667318e+00  4.1435415622699718e+00  9.8049243947956673e-07  5.9538356078647795e-07  1.5196456569547029e-03  2.6054880418704985e-07  3.1533884068811387e-05  1.1860000458858577e-04  5.7962351827636040e-05  2.6284430405813802e-04  1.8785075086291415e-04  9.7821595374644517e+00  1.0000000000000000e+01  1.7053940777461812e-06  2.3498726387110858e-01  6.4039319917767843e+00  3.8057479436726775e+00  2.8787356660597636e+00  4.8473828695840133e+00  9.2969537686449861e+00  1.1579239065229712e-02  8.3932252450986997e+00  5.9056697138586871e-03  1.1627753481888549e-02  1.0002820514905402e+00  9.1146940118217152e+00  4.0356119562373932e-01  1.0054580315175747e-03  6.9956216455046398e+00  2.4827774293765099e-02  5.2775016904554173e-01  7.1193610977205086e+00  6.6672445995873009e+00  1.9789893417277968e-01  0.0000000000000000e+00  9.1469543144666225e+00  0.0000000000000000e+00  6.3222008379976682e+00  5.4205576344795531e-02  3.2240275547804005e-04  3.4045855320546947e-04  3.9875104759283807e-04  1.9702342685020924e+00  2.2128860947895096e-02  5.2517077993242429e+00  1.2261317645155725e-06  8.8045828977561646e-03  7.7910757772365420e+00  4.4264923749283387e+00  1.4637978836434256e-06  2.2926582573217051e-02  2.5324430645231672e-02  1.7952734360702385e-01  8.6757467504758790e+00  5.5115260188600681e+00  2.2296283002615613e+00  1.1290422019429613e+00  7.6143931995697312e+00  9.4597266531067969e+00  9.8057893978879580e+00  4.1253985234624579e+00  1.1119476372061002e-07  1.0510136165403686e-01  1.7294934603927526e-08  3.5576205717949982e-01  9.8015338510397747e+00  1.0000000000000000e+01  1.0000000000000000e+01  8.9884588185155767e+00  2.0956835312313090e-03  7.4204424726489018e+00  0.0000000000000000e+00  1.2177128498043137e-08  1.9807360145337446e-01  0.0000000000000000e+00  1.0000000000000000e+01  2.9546131928873516e-04  8.9958531553188923e+00  1.0000000000000000e+01  3.1002101411963334e+00  1.5094630165286100e+00  1.0000000000000000e+01  1.0000000000000000e+01  1.0000000000000000e+01  0.0000000000000000e+00  0.0000000000000000e+00  0.0000000000000000e+00  5.2983018795525014e-02  0.0000000000000000e+00  2.0590597822792312e-03  5.2524191635715276e+00  0.0000000000000000e+00  2.4666037785940577e-07  2.5028852951902914e-07  0.0000000000000000e+00  3.4722221251104552e-05  6.0317171558942118e-01  0.0000000000000000e+00  3.1045784107439180e+00  1.0000000000000000e+01  1.0000000000000000e+01  9.8040583094482372e+00  0.0000000000000000e+00  6.0365363045009079e-01  0.0000000000000000e+00  5.4299753852396479e-02  1.0000000000000000e+01  1.0000000000000000e+01  6.2663474004070687e-05  4.4414362523570734e+00  1.2423997981343355e-08  9.0976697557726849e-01  5.1303190451645053e-01  5.9779412778738861e+00  7.7319723354426755e-03  3.8746138513162824e-05  9.0771448784284205e-05  1.6201756356005103e-05  8.8954587048809355e+00  6.3079710183802535e-06  1.3958056369036669e-08  2.3373792697959907e-06  7.8802271251799487e+00  6.6899926338726523e-08  1.2482876318717771e-07  1.3177734968282486e-08  7.0384347553238952e-08  3.0470084938838105e-08  9.3805544304557684e-08  7.7237814134192141e-08  8.9504471124686891e+00  8.1727745057139938e+00  6.1130497346963247e-05  3.7708019860146297e-01  9.7715422461212444e+00  2.4259646725216336e-07  1.2717871558894824e+00  1.8165896919682810e-02  1.7511412201081230e-06  8.5562469069385381e-03  4.2238161072225228e-04  3.3444876877359751e-03  4.7385220426452115e+00  9.2261344087373267e+00  3.0686143138766435e-05  8.5654644218567260e+00  7.8386073963400387e+00  1.9487535812165655e+00  2.2995608356199508e-03  7.0060475727837759e-02  2.5886533675514922e+00  1.7503653522302974e-04  2.3900924181507327e-01  8.8966800963148547e+00  3.8317179744707357e-04  1.0251980541554320e+00  6.8645131314281960e+00  5.0286972023382184e+00  6.6664953289489217e+00  1.3679673009277647e-08  1.6188218868226712e-04  5.6409230370281087e-05  2.0142211129552844e-05  1.3481360219324602e-06  5.5824826865725413e-06  1.3956821875907020e-02  1.7193736751693026e-01  8.0694896273299135e-02  5.1639029774123912e+00  9.4892105044858255e+00  9.1570158501555845e+00  4.0103589408841200e+00  3.4346513237734868e+00  9.2756734950923455e-03  1.8114046304795675e-01  8.0835678734259636e-07  1.8271599338153254e-06  1.1025052087881311e-05  5.3281906611438973e-06  1.8254241715773416e-05  1.3057563737087180e-05  6.5113062687128249e-06  1.2067808216647193e+00  1.0776863313965359e+00  7.0857287052554152e-03  5.7785382446749511e-01  8.8251212751503640e+00  1.7325790676858922e-03  4.5148542372677242e-04  9.8330109827686076e+00  7.8721525751485864e+00  8.3560691440392532e+00  2.5423509687788998e-01  2.4277741455904847e-07  1.3267315912131332e+00  7.6243207771494223e-02  1.5101628599728455e-03  2.5268393482773135e+00  5.3461527137649458e+00  7.7211374457415162e-06  7.3734844716683394e+00  6.5535718134895324e+00  5.1271228503090294e+00  9.7856930479472179e+00  8.3231447173084163e+00  8.5961574494936741e+00  9.1783987285887818e+00  7.5381351276424233e+00  7.9682157396240882e-04  5.8237844378101654e-07  5.0564954251767110e-06  9.7931547382878623e+00  1.0629425155919241e-03  5.3380600255413090e-06  1.3904663925924703e+00  2.6736135964467365e+00  3.2171078244757775e-02  3.9141144142087443e-03  6.3872996772291704e-02  4.4063108763613819e-05  7.1132816759489437e-05  3.2990641662300653e-05  1.1180097660711976e-08  6.5316176864258901e-04  6.6407762643976316e+00  5.3306511726108754e+00  2.0259911021813348e-06  9.2737623362693231e+00  5.5143871251361016e+00  7.5904336370018033e+00  3.6487927276527192e+00  1.0041523639014980e+00  5.9356764658901175e-06  2.3232776336595891e-06  6.7635473618647750e-07  9.6910642400710446e-07  6.0700063388572867e-01  4.94965