<?xml version="1.0"?>
<VTKFile type="UnstructuredGrid"  version="0.1"  >
<UnstructuredGrid>
<Piece  NumberOfPoints="2513" NumberOfCells="4852">
<Points>
<DataArray  type="Float64"  NumberOfComponents="3"  format="ascii">-1 1 0  -1 -1 0  1 -1 0  1 1 0  0 -1 0  1 0 0  0 1 0  -1 0 0  0 0 0  -1 -0.5 0  -0.5 -1 0  -0.5 1 0  -1 0.5 0  1 -0.5 0  0.5 -1 0  1 0.5 0  0.5 1 0  0.4166666666666666 -0.4166666666666667 0  -0.4166666666666667 0.4166666666666667 0  -0.25 -0.5 0  0.5 0.25 0  -0.4861111111111112 -0.06944444444444445 0  0.0732758620689655 0.507183908045977 0  -0.625 -0.625 0  0.625 0.625 0  0.7380952380952381 -0.25 0  -0.7099116161616161 0.2105429292929293 0  -0.25 0.7380952380952381 0  0.105392156862745 -0.6348039215686275 0  0.6770833333333334 -0.6770833333333333 0  -0.6770833333333334 0.6770833333333334 0  0.3472222222222222 -0.06944444444444446 0  -0.7264957264957265 -0.3044871794871795 0  0.3141940982507127 0.7297313660835709 0  0.02049587951122483 -0.3227479397556124 0  -0.2690972222222223 0.1475694444444444 0  0.3859500089908372 -0.7274430156831472 0  -0.2228477945123298 -0.1761765495248019 0  0.2182539682539683 0.1884920634920635 0  0.75 0.375 0  -0.145442219440968 -0.7602211097204841 0  0.7088913690476191 0.0427827380952381 0  -0.75 -1 0  -1 -0.75 0  1 0.75 0  0.75 1 0  -0.7439982703698937 -0.04614153195464455 0  -0.4609235096577606 -0.3356498099556895 0  0.4063134471431929 0.4895621842856023 0  0.25 -1 0  -0.25 -1 0  -0.75 1 0  0.75 -1 0  -1 -0.25 0  -1 0.25 0  1 -0.25 0  -0.25 1 0  1 -0.75 0  -1 0.75 0  0.25 1 0  1 0.25 0  -0.4041423272138783 -0.7597141090712928 0  0.06500839607911253 0.7578103030529481 0  -0.1572801182352047 0.3838997021864289 0  -0.6528005242053915 0.4409494757946086 0  -0.4930160984848485 0.1544744318181818 0  -0.4732142857142858 0.7752976190476191 0  0.6398809523809523 -0.4538690476190476 0  0.5166054117396399 -0.2161233620965164 0  -0.002273787244753427 0.2232363985975174 0  0.1500564496765022 -0.1524955293952667 0  0.2016720420046758 -0.4410343282803009 0  -0.08495178036419618 0.6274139771124571 0  -0.8367311471133162 0.3642591720794645 0  -0.8333333333333334 -0.625 0  -0.594323836800685 -0.8231079456002283 0  -0.4466957714776065 -0.5349126855671806 0  0.8125 0.5625 0  0.78125 0.78125 0  0.5091392650016769 0.7947130883338923 0  0.125 -0.8382681931833136 0  -0.8184523809523809 -0.8184523809523809 0  -0.07781530426104531 -0.5819319697006881 0  0.5085055196703295 0.04967610411902112 0  0.2918471072074933 -0.276017202318847 0  0.5120763537765269 -0.5898771553229597 0  0.625 -0.8585349462365591 0  0.8158532234335381 -0.8158532234335381 0  -0.5198088446315396 0.5739411553684605 0  -0.8585349462365591 0.625 0  -0.8150493805516597 0.8156205699829586 0  0.8585349462365591 -0.625 0  -0.2688268348649726 0.5439331383603209 0  0.8242100426758139 -0.4436043596336612 0  0.5833756314287952 0.4479378157143976 0  0.8690476190476191 -0.125 0  -0.125 0.8690476190476191 0  -0.8692745600729823 0.125 0  0.8696725120759167 0.125 0  -0.625 0.8711516477451908 0  0.2339522463269718 0.3879558377955778 0  0.2453709502295031 0.5655822922838026 0  0.1730610651637797 0.02021709580868947 0  0.3245402594056757 -0.5644672020485209 0  -0.7291666666666666 -0.4816595441595442 0  -1 -0.375 0  -0.5811140848639904 -0.2127276307675001 0  0.673332592838314 0.2158348143233718 0  0.375 1 0  -0.5714768890989919 0.2985103444040069 0  -1 -0.125 0  -0.8453692574786325 -0.1875 0  -0.3144549134065865 -0.02408675326008025 0  -0.2898414972096258 -0.3336092734780093 0  -0.1075052092206287 -0.4224330421314983 0  -0.05043970703604117 -0.1652278959397459 0  0.6459672950297897 -0.1113415301525317 0  0.4645210271029513 0.6398480556579343 0  0.3512863754411909 0.0937979496253573 0  -0.6063160985568274 0.03891469652249891 0  -0.3428819444444445 0.8690476190476191 0  0.625 1 0  -0.1602164796159982 0.02697860906625157 0  0.04648110064133829 -0.4808416424239687 0  1 0.875 0  -0.3836102479201657 0.6484936449177356 0  -0.3776011723096096 0.263078478984336 0  -0.6024978259969829 -0.3949628096211138 0  0.125 1 0  0.2010781308272777 0.8456221018461906 0  0.2822509696388829 -0.845902544691141 0  -0.3285533674953515 -0.6289773550938936 0  0.3461306793221754 0.278777492464833 0  0.4737475672408696 -0.8508448959534423 0  0.2384632828836344 -0.7029523187242811 0  -0.004777287059791593 0.3759269695907358 0  -0.8499735021850066 -0.3912320205328522 0  0.1222536293721587 0.2963971539625205 0  -0.3769456520999688 -0.203572526805711 0  -0.2749617205755651 -0.8464290792698902 0  0.004805888512766143 -0.747174355248311 0  -0.125 -1 0  -0.06001061822252458 -0.8724007765244854 0  0.875 0.4375 0  0.854421179608893 0.271342359217786 0  0.875 1 0  -0.1499861095763589 0.2358309656934888 0  0.3381943639137225 0.8663061796405532 0  -0.7853090110442228 0.4998412775277108 0  0.7398165998560814 -0.5535192694951373 0  0.1580042122341573 -0.3100246140259917 0  -0.7291666666666667 -0.7142857142857142 0  -0.375 -1 0  0.6483368386154684 0.8514905990110488 0  -0.1295370103291928 -0.2826118305021242 0  0.07458201853700455 0.1123894386563915 0  0.6146465857036327 -0.3161203659316075 0  0.5551898493894731 -0.740296118159085 0  0.375 -1 0  0.482702798370208 -0.084133350091034 0  0.87890625 0.68359375 0  -0.05917195534525846 0.4971092425697621 0  0.1260710309213975 0.6343750312956699 0  0.8690476190476191 -0.3077066815262848 0  -0.2912010232560567 0.3668168386732139 0  -0.875 1 0  -1 0.875 0  1 -0.875 0  0.875 -1 0  -0.8689564281364567 -0.006189266075306407 0  -0.7449425635110547 0.08458938160051771 0  -0.7150266761936593 -0.1739444581417552 0  -0.5260034831318311 -0.711099823962112 0  -0.4724626808827322 -0.871722230709409 0  0.4734436795977052 0.377714794132168 0  -0.875 -1 0  -1 -0.875 0  0.6927189078571988 0.5156567235715964 0  -0.3742497615796874 -0.4296005251260107 0  -0.1969436423297711 -0.6387157229772615 0  -0.6179496409766825 -0.08933356056510935 0  -0.424405057115988 0.04452428810878029 0  -0.08479048335844169 0.1279607007132633 0  0.003830300099055113 0.8712085230656206 0  0.8748778838820267 -1.379218479898026e-05 0  -0.375 1 0  -0.625 1 0  1 0.125 0  -0.125 1 0  1 -0.375 0  1 -0.125 0  1 -0.625 0  0.625 -1 0  0.125 -1 0  -0.625 -1 0  -1 -0.625 0  -1 0.125 0  -1 0.375 0  -1 0.625 0  1 0.375 0  1 0.625 0  0.6325660748712082 0.3335187599557389 0  -0.06420945895056573 0.7549874027425891 0  -0.8769015540914771 0.2478802253893416 0  0.871875 0.871875 0  -0.6868091492840067 0.3270978624973681 0  -0.5363597469565949 0.412994850055505 0  -0.6803734992638302 0.5574295000651103 0  -0.7076253581162534 -0.8803439094224437 0  -0.8778089002295137 -0.5106896447504627 0  -0.3860184984222981 0.530566778071246 0  0.6109900617121508 0.1128453077697081 0  0.3896945134930274 -0.1915382873255086 0  0.7605656944697778 -0.06822134873122943 0  0.3576151269893478 0.5948388411612135 0  -0.5689902680792265 -0.5143596830118065 0  0.6262446286847614 -0.5735657901943212 0  0.2030558252325225 -0.5625263842513452 0  0.6123273142928579 0.7407533260723429 0  0.4016460890123554 -0.3042863223111857 0  -0.59039693199147 0.7578418819188018 0  0.7276932493917544 -0.3705808024528924 0  0.5222536818742854 -0.4713886230400014 0  -0.5101986527137737 0.8848365765607674 0  0.510560172809238 0.5356013299918891 0  -0.3603569195756083 0.75823710606415 0  0.1967279277813232 0.728226870058472 0  -0.6086880986371127 0.1545624071548516 0  -0.38105366729386 0.1511189987807864 0  -0.2944659463671584 -0.7359061804869591 0  0.5060729154966499 -0.3475227845833823 0  -0.09281616240412746 -0.06197858250969457 0  0.7649739583333334 0.6673177083333334 0  0.7628906249999999 0.890234375 0  -0.2666864184909611 0.2585504071132311 0  0.3635064892129658 0.3878003602709461 0  -0.2339409722222222 0.8901937905844155 0  -0.1718792125974916 -0.8957733325456778 0  0.1001768566329531 0.4023510017391879 0  0.3120260172693757 -0.4540546875576884 0  0.7804062804433681 0.1896628610854537 0  0.4087715451998049 0.187961780041608 0  -0.1584963477271457 0.5451611892421655 0  -0.8926817849258324 0.463022006336401 0  0.2338091473445219 -0.07576267331277289 0  0.08171112182813692 -0.2349087687359925 0  0.04635385178956847 -0.1044635073718474 0  -0.4377391632114205 -0.6448874471423088 0  -0.1907678351227189 0.6480215912813945 0  0.300605946475244 0.4741444604171038 0  -0.2145033720757486 -0.06751709909419711 0  0.6069191921170397 -0.005492331448357812 0  0.0214718770761248 0.6032397936031719 0  0.5476675683364878 0.8992752415326501 0  0.4387475014316537 0.9093708953002239 0  -0.4932997685306436 -0.4381009159993523 0  0.2515197695339056 -0.1791673369138964 0  -0.7291666666666667 -0.6088789682539681 0  -0.9166666666666667 -0.6875 0  0.620579540363709 -0.2122431523583302 0  -0.484950136419973 0.6719440339397442 0  0.2857044415400258 0.0137589173127316 0  -0.8945708364098356 -0.288306105327986 0  0.4043102720140535 0.7842914560451557 0  0.04123256238752064 -0.9026968245801402 0  0.2003676884403109 -0.9091888601740487 0  0.1068775558538842 -0.7373377130403223 0  -0.4804566783514427 -0.1763307203045643 0  0.108286342087769 -0.3993789328997278 0  -0.191883080105361 -0.3640821726430649 0  -0.07025064492006244 0.2984876656890053 0  -0.7039324641409584 0.788312126296613 0  -0.7311286585775438 0.8932502354831682 0  0.5171409396884947 0.1503852691889257 0  0.4229392823658633 -0.003216522184234835 0  -0.5621736087218259 -0.919558629836806 0  -0.626474064879544 -0.7266572613636506 0  0.2446828746617422 0.2867616783302419 0  0.1759429608742923 0.4776611759306416 0  -0.3468240303741654 -0.5260416435617549 0  -0.7465808808425306 0.4069574477998361 0  -0.7819962170660292 0.2802441065650652 0  -0.3742623214119594 -0.8547800509641984 0  0.1014498009713561 0.8506721983266377 0  0.4285217620918213 -0.5230190595570253 0  0.4091738370487775 -0.6256346204225141 0  0.78125 0.46875 0  0.90625 0.53125 0  -0.4791801348852565 0.2553992655702126 0  0.7843318610782772 -0.7086046956885941 0  0.8909728264971901 -0.7355183796514634 0  0.7041908166528879 -0.7830649143180282 0  0.7311821352
[...]
<PointData  Scalars="velocity-2"> 
<DataArray  type="Float64"  Name="velocity-2"  format="ascii">0.0000000000000000e+00  0.0000000000000000e+00  1.0000000000000000e+01  1.0000000000000000e+01  4.7764622003071562e+00  1.0000000000000000e+01  4.7763764212985400e+00  0.0000000000000000e+00  4.7764566867807705e+00  0.0000000000000000e+00  2.3443408160004227e+00  2.3443839310317247e+00  0.0000000000000000e+00  1.0000000000000000e+01  7.3393574151130387e+00  1.0000000000000000e+01  7.3393708377664666e+00  6.9035989938700029e+00  2.7417800132912475e+00  3.5452585895160844e+00  7.3394504448118187e+00  2.4104645230556780e+00  5.1437762534711169e+00  1.7531400600674245e+00  7.9985200196317283e+00  8.5992748368571679e+00  1.3540361116827575e+00  3.5452534298821483e+00  5.3057116003600884e+00  8.2747016905307706e+00  1.5081375075020900e+00  6.5427814595378573e+00  1.2763167576388268e+00  6.3720378819384438e+00  4.8789145265898384e+00  3.4525305976929843e+00  6.7437120030236919e+00  3.6774083880300950e+00  5.8791794898106646e+00  8.6626923540948475e+00  4.0561973354380925e+00  8.4437832755666609e+00  1.1661989587073622e+00  0.0000000000000000e+00  1.0000000000000000e+01  8.6626748411219854e+00  1.1943043629315080e+00  2.5304203038873916e+00  6.8495998485629155e+00  6.0416496364737364e+00  3.5451978617799518e+00  1.1662386228698385e+00  8.6626407383083510e+00  0.0000000000000000e+00  0.0000000000000000e+00  1.0000000000000000e+01  3.5453108888696532e+00  1.0000000000000000e+01  0.0000000000000000e+00  6.0417053080022916e+00  1.0000000000000000e+01  2.8017123991931769e+00  5.1021932200446480e+00  3.9980091442062586e+00  1.6222341714622235e+00  2.3775880218770991e+00  2.4718341572850786e+00  8.0772873667686884e+00  7.4266788288943433e+00  4.7651466926846400e+00  5.5317491056507953e+00  5.7944235358867253e+00  4.3543376603065216e+00  7.6086719677675863e-01  7.7673094134039500e-01  1.8977980597691084e+00  2.5982796661771621e+00  8.9962303906268257e+00  8.8293700040372869e+00  7.3873783035644021e+00  5.4048718045899680e+00  8.4620322180218033e-01  4.3897181121668769e+00  7.3840662739040255e+00  6.2568345962872387e+00  7.4028473297557049e+00  7.9985065300440388e+00  9.0141333791320228e+00  2.2503743114067438e+00  6.5913409175301430e-01  8.6208660994847464e-01  9.2423370291757951e+00  3.4538748261175720e+00  9.0587734947777072e+00  7.7784077749275484e+00  9.2985761541446177e+00  4.1566650788286230e+00  6.0903423091653897e-01  9.3019113211335771e+00  1.7531014442495747e+00  5.9594731921629283e+00  6.0179312970506560e+00  5.6486505301882239e+00  6.4254938106134789e+00  1.2637851670405615e+00  0.0000000000000000e+00  1.9601773918690666e+00  8.2547968500203428e+00  6.6867008252031104e+00  2.0056643905716540e+00  0.0000000000000000e+00  7.2056552716836964e-01  3.2329910567756515e+00  3.3520507420690819e+00  4.2429741996950705e+00  4.5253931331651138e+00  8.1095857480483282e+00  7.1535562219273796e+00  6.5638186737187656e+00  1.8411522520903856e+00  3.0959250484196144e+00  7.9984744406864019e+00  3.9836649509648683e+00  5.0090837484638957e+00  1.0000000000000000e+01  2.9001282362317333e+00  2.9289962818701603e+00  1.8591968703618407e+00  5.4047449385352380e+00  5.7914823072189412e+00  6.2073743526220966e+00  3.1650045683681323e+00  6.5372143156367608e+00  7.2017959525239528e+00  5.9826101583990159e+00  4.7526503872784591e+00  6.9907317159986293e-01  5.3909592365292056e+00  2.9320995220047630e+00  3.4241107946808857e+00  4.8004610634947449e+00  4.1566905381902277e+00  4.4778457894774899e+00  9.3304338374775089e+00  9.2203271195697152e+00  9.3304370734481736e+00  4.0338304364502422e+00  6.4960763845331924e+00  1.0010731744222197e+00  8.6084372335891928e+00  5.5721634322489546e+00  1.2638045347958302e+00  2.9414397362147082e+00  8.1221444684536515e+00  4.1343805385632191e+00  5.1504016719341159e+00  7.9437000531548057e+00  7.6297057919401787e+00  6.6867770000005189e+00  7.2486993917434912e+00  9.3513498987323231e+00  4.4820812026439061e+00  5.4102470196889678e+00  9.2985823435221100e+00  3.3454683019547518e+00  5.8232180195606198e-01  0.0000000000000000e+00  1.0000000000000000e+01  9.3304160137191587e+00  6.1052858425907364e-01  1.1898987515550781e+00  1.3300652114182470e+00  2.2209922457896587e+00  2.4754456527409716e+00  7.2002098137435162e+00  5.8233200694818010e-01  0.0000000000000000e+00  8.3577881627428585e+00  2.9450772700221259e+00  3.8038469632939975e+00  1.7863554614695114e+00  2.7047696461475033e+00  4.3551604625339628e+00  4.7956588849232480e+00  9.3297830249287852e+00  2.9413503023801200e+00  1.7530941979223007e+00  1.0000000000000000e+01  4.1567091529698299e+00  1.0000000000000000e+01  1.0000000000000000e+01  1.0000000000000000e+01  7.9984637948330102e+00  5.4047607286044261e+00  1.7530965966200200e+00  0.0000000000000000e+00  0.0000000000000000e+00  0.0000000000000000e+00  0.0000000000000000e+00  1.0000000000000000e+01  1.0000000000000000e+01  8.0385849730052765e+00  4.4570718034347347e+00  5.7346842952390653e-01  9.3137001424474324e+00  1.4624087084053004e+00  2.1718751487878190e+00  1.4926532285986867e+00  1.3647867592762100e+00  5.6924138992138662e-01  2.8885737619742526e+00  7.9243703084270098e+00  6.7632840405869903e+00  8.7190153525995093e+00  6.5966598756239678e+00  2.0174692010949191e+00  8.0050742003653230e+00  5.8015202078981778e+00  7.9314197423964883e+00  6.8253529591904902e+00  1.9162975601357677e+00  8.5438560877776570e+00  7.4563288933688918e+00  2.2960103014032192e+00  7.3948798084073983e+00  3.0117886210508567e+00  5.7692803150139014e+00  1.8299862992272897e+00  2.9123842239082491e+00  3.3296340146658987e+00  7.3713034146948573e+00  4.3154847678345680e+00  8.7425344470133428e+00  8.7314095296857612e+00  3.4641954312060417e+00  6.6272406744020174e+00  3.6234123435319807e+00  3.9264795905332122e+00  5.2793580819121475e+00  6.3607677432162912e+00  8.8248368824106560e+00  6.8624096181780301e+00  3.9920676982803269e+00  4.9990073104778004e-01  5.9587540515397892e+00  5.1862886117988110e+00  5.0084925364221276e+00  2.6409928826849587e+00  3.8340180976568305e+00  6.3019262063649046e+00  3.7180086243055470e+00  7.9028123918353623e+00  4.8837486005882544e+00  7.5900809522325616e+00  7.0187334513756054e+00  2.3763214036689395e+00  6.0494930745671205e+00  1.2638081601792173e+00  3.8812866445689437e-01  7.9751013414544305e+00  2.4160128725952079e+00  6.2251659392098961e+00  4.9110533873543066e-01  6.8392201286558603e+00  4.9827664111886980e+00  5.7877798981142767e+00  5.3132190630080700e+00  2.4373613858327419e+00  5.3202994259964607e+00  3.8285755604662612e+00  4.4271434282659285e+00  1.3820944736712684e+00  1.2545629807341256e+00  7.4294439102287892e+00  6.9362790768260556e+00  2.0496857779026114e+00  1.7461927573461751e+00  6.0144309058573775e+00  5.6633785416353035e+00  3.0768882148350203e+00  1.1822313796101178e+00  1.0165191859438756e+00  2.9449719121084939e+00  5.2857900640979985e+00  6.9654442884891479e+00  6.8645310526175694e+00  8.8293703212466923e+00  9.4977263063604660e+00  2.4434254797284680e+00  8.8458036562914497e+00  9.4159316854607269e+00  8.4187751150445731e+00  8.5624339852786218e+00  3.8164844609503157e-01  4.3381228731052174e-01  1.0060077331282173e+00  3.6244896928214057e+00  9.3373673148466652e-01  4.7682515068129944e-01  4.2280305632799009e-01  8.1145425319566566e-01  8.0312063242118636e-01  9.4253517407848175e+00  3.3648595723584660e+00  1.9576153164278016e+00  6.7054874351320217e+00  4.3970726995898666e+00  4.8887774686138590e+00  3.9495522363858484e+00  1.0795300017091232e+00  6.3684303679448950e+00  5.3841950026370595e+00  2.8871941043573988e+00  3.1622289112695818e+00  3.6573718642235031e-01  7.6682508199160742e+00  9.4392569192689155e+00  9.5001961264988601e+00  9.3325274833962535e+00  2.2056783119282430e+00  2.4765682430569500e+00  1.8945702322180764e+00  5.9942577715789129e+00  8.6388450315027665e+00  3.1697872453405167e+00  6.4077835898689042e+00  5.9587646066916875e+00  3.9851749305143032e+00  7.2010806134602454e+00  3.8921655222361289e+00  1.7393058974376263e+00  8.5795742863327824e+00  3.2424449248754352e+00  8.8232474855824190e+00  8.0229871914204198e-01  9.5016526015346408e+00  3.1218649647253188e-01  2.2747041996584971e+00  8.2324290920435530e+00  7.8743366925508278e+00  7.8075225441502019e+00  4.4655070776363379e+00  9.8962707788088977e-01  3.0441014494953023e-01  8.9386671802811080e+00  9.6508412256784410e+00  3.2647349511902699e+00  6.3632975237292424e+00  7.4872110310267175e+00  7.0123088648617076e+00  9.6506847359842638e+00  8.9962215637439282e+00  6.2185549697842557e+00  5.4254983249479611e+00  2.6421495581529761e+00  1.1344996380906265e+00  9.6817360805852415e-01  1.5602025655580152e+00  9.6504133821432045e+00  2.9174519787717346e-01  2.9208204190733217e-01  9.6508428948807694e+00  9.6491563300173748e+00  5.0895338867844204e+00  3.7505699113205221e-01  9.6487616061676942e+00  8.4489316524608000e+00  7.7749563065508029e+00  5.3461063126688471e+00  5.7198242069164920e+00  8.3300592485563971e+00  6.7410315161752035e+00  6.5098023673936369e+00  4.7855589204510940e+00  5.2019657771471861e+00  3.0440267869245891e-01  1.4635073010625290e+00  8.4134927405288860e+00  3.5550718189151405e+00  4.0297077944355690e+00  2.4661450708016410e+00  4.7505785285839188e+00  5.7222212465384406e+00  2.3114272784673728e+00  3.3643612499059405e+00  2.9401041472519589e+00  3.6817120716650744e+00  7.7517709378889865e+00  7.0310954261214160e+00  9.0474502900195120e+00  4.8059220570869012e+00  2.2833470188524636e+00  8.9583625896416319e-01  3.3214319366071310e+00  8.5713795912303095e+00  9.1254542947959116e+00  3.8813704589181447e-01  3.4466762557662339e-01  7.6867044728145890e+00  8.3778825312196723e+00  3.7010209399185805e+00  8.3111852939880020e+00  4.1527401026465283e+00  6.1078632218584508e+00  7.5747609981247610e+00  2.6723598624228884e+00  2.1016757139979436e+00  4.5453913525636063e+00  4.7231863110514611e+00  4.4546265310837843e+00  5.4914182764568684e+00  2.0915637632401376e+00  1.6694233242349124e+00  1.8345976643876158e+00  1.6972404671369836e+00  2.1310703436899274e+00  2.0480689691543765e+00  4.4022517037276101e+00  4.7615550411943515e+00  3.8541179380337716e+00  7.3494052241538768e+00  6.0660808880073551e+00  1.5659973522126602e+00  2.1030714858875985e+00  8.6501608340520679e+00  4.1019077408059852e+00  6.8848818407635939e+00  7.5648999803137817e+00  7.0013844228763187e+00  2.6421439525205570e+00  5.8593212641579679e+00  3.3053004343892156e+00  3.3277696059605608e+00  5.5648513255049865e+00  4.8180349072665827e+00  5.3807883277709641e+00  5.8147332122658968e+00  4.3807426723805163e+00  2.9558676552928311e+00  2.7915839951993644e+00  9.0386484339741990e+00  9.6627802872042263e+00  6.3860900875689550e+00  4.0997303476570396e-01  4.0354658726578014e+00  7.0953591884196454e+00  3.1901347419453594e+00  9.0727467973087528e+00  2.6874525896824921e+00  6.2991496425398505e+00  3.6655601157222066e+00  2.5947342323019411e+00  9.6210047652834021e+00  4.8029382455144048e-01  5.5226981320928488e+00  7.9970789333640004e+00  9.3503751652957874e+00  2.9106513112738114e-01  8.8634519049935072e+00  3.8500429994240108e+00  3.1431210838570172e+00  1.4953979301676070e+00  3.6686507637615212e-01  6.1165315288893183e+00  9.6941936254815875e-01  1.5673214194403189e+00  1.5981331810706911e+00  4.9492565057236488e+00  4.9577791638929334e+00  8.3299891938832520e+00  8.1965592493768256e+00  6.0415247044590314e+00  1.0000000000000000e+01  2.7055235678698755e+00  8.8762142245242981e-01  7.5990749359484839e+00  3.3820550747223153e+00  2.9388170146488322e+00  4.4294606920249393e+00  1.7200845783040468e+00  1.4591971320346089e+00  7.7404007582256078e+00  8.5052067346559941e+00  2.1598903355839258e+00  2.0718177625410412e+00  6.3632634533352350e+00  2.8674418985582446e+00  5.6002958538672392e+00  2.7252140607357105e+00  4.0630652959049423e+00  3.7546279337258239e+00  4.3959198665398143e+00  1.0000000000000000e+01  9.2611205365240377e+00  7.5063528886291326e+00  7.1394968204072429e+00  6.8026281541246170e-01  8.3465267831084411e+00  7.8023713335601705e+00  6.2632557413755219e+00  4.6423963507962416e+00  1.4591631081748859e+00  9.6449937312182019e+00  3.9351625236483891e+00  3.5805781621955153e+00  1.3177154089519205e+00  8.6593216411139096e-01  7.0547449032011382e+00  7.9606227324134116e+00  3.7870231115453454e+00  4.9517403882015589e+00  5.5991377283083352e+00  5.6590554250414584e+00  5.3710196252522806e+00  1.7252857352865718e+00  7.7795288937514657e+00  0.0000000000000000e+00  1.6060187143960569e+00  1.9465870195994353e+00  4.2476647930052733e+00  2.7040499211484716e+00  3.1630210124615199e+00  9.1338322081115475e+00  6.8726359026797956e+00  7.1280689098481131e+00  4.3685175699661176e+00  3.2942999783845023e-01  8.3038596261142903e+00  4.1500788271785680e+00  4.6620648405433425e+00  4.6885852430419810e+00  1.0000000000000000e+01  8.1376991915808716e+00  7.7097092561475522e+00  8.2253899724445745e+00  3.0404361413375147e+00  9.6651035574619915e+00  9.1632741859474169e+00  9.6099866705309740e+00  0.0000000000000000e+00  9.6650951092212871e+00  4.1871740829055595e+00  1.1217499270062763e+00  1.4570037352963079e+00  6.3946802944240471e+00  6.4164170529781126e+00  6.6646417885191962e+00  6.5759634952530579e+00  9.6289472820533604e+00  9.0140578424689206e+00  5.6588824300576084e+00  5.2310130141615581e+00  7.2633413278611858e-01  3.6677525420252248e+00  5.1490551395061654e+00  3.4711785071491215e+00  2.4310348291728396e+00  1.0548212299988906e+00  1.5303026961964250e+00  1.0200326073767649e+00  3.2038356040688845e+00  8.3401032938162629e+00  1.8058662315848455e+00  6.8702041702209113e+00  0.0000000000000000e+00  2.1390358821231366e+00  9.6388156555658639e+00  5.7372007952905557e-01  6.6135484101111714e+00  5.0420680416916142e+00  2.9782892701065653e+00  5.8496437033713953e+00  5.0611065886495430e+00  4.4783520592316881e+00  4.7749075660478528e+00  7.0872418015997178e+00  9.6492392805855065e+00  9.2037470148190370e-01  8.9530908689085820e+00  5.1264188438286222e+00  9.6576152845031178e+00  5.5346977427518818e+00  6.5416762581205825e+00  4.8002955184752656e+00  2.0142295838472668e+00  4.3258370435592530e+00  1.0000000000000000e+01  5.1625597434595560e+00  1.0368212838116391e+00  6.3020834810259423e+00  1.2998691889308323e+00  4.1511526543061414e+00  8.9439633367648081e+00  7.3414042436233222e+00  1.1557772502214290e+00  1.0590676480124275e+00  3.1304915906113591e+00  8.6794863971169711e-01  2.0013417514273057e+00  2.3581298725000588e+00  2.1664259962691612e+00  2.5929495988505629e+00  2.4910268637377899e+00  9.6491619781292233e+00  1.0000000000000000e+01  1.2846304306369860e+00  5.1745664564840625e+00  8.0059496544527136e+00  7.2377581060058676e+00  6.9323016480615003e+00  7.5502707949699381e+00  9.1911303117802525e+00  3.8498694002512095e+00  8.6983862731134618e+00  3.5963426368175258e+00  3.8395930806824925e+00  6.0509707286871368e+00  9.0703928311707269e+00  5.4727985266720776e+00  2.9901490135691406e+00  8.1905262117447837e+00  4.1360453666024526e+00  5.6312388383123366e+00  8.2308334767766347e+00  8.0876811412988925e+00  5.0894132907907892e+00  0.0000000000000000e+00  9.0894887398963942e+00  0.0000000000000000e+00  7.9823532169086651e+00  4.4665956218023624e+00  2.6483659051189754e+00  2.6694706660208110e+00  2.7104178351379309e+00  6.5788093740664015e+00  4.0898880834186917e+00  7.6681977499543397e+00  1.2176282218109598e+00  3.7387183736502680e+00  8.4610868124127769e+00  7.4271130368713711e+00  1.2637564707275839e+00  4.1025755016790280e+00  4.1523586351605681e+00  5.0381027571502397e+00  8.8247205799519275e+00  7.7428039406577502e+00  6.6889716366255421e+00  6.1392592672452970e+00  8.3970773310843736e+00  9.3161505370094950e+00  9.6647554519042185e+00  7.3353601849818526e+00  6.9917668643751263e-01  4.7766643420719532e+00  3.1975850862990479e-01  5.4024293553930542e+00  9.6647986400249479e+00  1.0000000000000000e+01  1.0000000000000000e+01  8.9962239350898194e+00  3.2424161212922522e+00  8.3299721385225052e+00  0.0000000000000000e+00  2.9107508616225497e-01  5.0894642615069330e+00  0.0000000000000000e+00  1.0000000000000000e+01  2.6420887837088327e+00  8.9962033936510633e+00  1.0000000000000000e+01  7.0121598711230302e+00  6.3631773944942376e+00  1.0000000000000000e+01  1.0000000000000000e+01  1.0000000000000000e+01  0.0000000000000000e+00  0.0000000000000000e+00  0.0000000000000000e+00  4.4654993400304326e+00  0.0000000000000000e+00  3.2423315342042387e+00  7.6682012566386142e+00  0.0000000000000000e+00  8.7398107397773062e-01  8.7396458591240000e-01  0.0000000000000000e+00  2.0481193776585109e+00  5.7220994689675857e+00  0.0000000000000000e+00  7.0122345476647743e+00  1.0000000000000000e+01  1.0000000000000000e+01  9.6650986732467015e+00  0.0000000000000000e+00  5.7220822271960055e+00  0.0000000000000000e+00  4.4655727663850087e+00  1.0000000000000000e+01  1.0000000000000000e+01  2.1919245758648800e+00  7.4318792558992666e+00  2.5288154260968915e-01  5.9850273690204485e+00  5.6187432755850626e+00  7.8787972171558591e+00  3.6939863393912074e+00  2.0593994813210705e+00  2.2869697160029987e+00  1.8413137235142463e+00  8.9395530088573913e+00  1.6060255768867759e+00  2.7444183566742270e-01  1.3677431187038451e+00  8.4949900537804819e+00  5.9075646813448834e-01  7.3610533379960541e-01  2.8626380572708227e-01  5.9488460413911770e-01  4.3667304084031211e-01  6.5517240073142213e-01  6.0923583521150726e-01  8.9725083941734418e+00  8.6076322718191207e+00  2.1828751298440685e+00  5.4360616248237834e+00  9.6301745985607194e+00  8.5892362378803944e-01  6.2251549298208326e+00  4.0161808852418162e+00  1.2969205921935103e+00  3.7240313460359014e+00  2.7281482631663430e+00  3.3967950354241028e+00  7.5172954732379598e+00  9.1388833020177156e+00  1.9988484654584000e+00  8.7758354832346264e+00  8.4769509339257976e+00  6.5701604989691358e+00  3.2661269557049004e+00  4.5882443802504200e+00  6.8282233597603943e+00  2.4770903197308014e+00  5.1839121000929413e+00  8.9409308646409009e+00  2.7079751661349865e+00  6.0714211432633807e+00  8.1485595274046094e+00  7.6031312071464390e+00  8.0878132858260834e+00  2.8050012196430885e-01  2.4538134264037423e+00  2.1699279223899977e+00  1.9006398129511064e+00  1.2401654746278545e+00  1.5703969855612812e+00  3.9148906846472147e+00  5.0113506092343325e+00  4.6509636450333369e+00  7.6414436958668013e+00  9.3338570653907915e+00  9.0955641518737949e+00  7.3008543034936446e+00  7.1200988020702836e+00  3.7655803151135516e+00  5.0411011544986026e+00  1.1348243643666840e+00  1.3100490487187428e+00  1.7377830003520334e+00  1.5589510731959346e+00  1.8767278073624032e+00  1.7808069993959414e+00  1.6248064704839151e+00  6.1892086393869210e+00  6.1089652656202542e+00  3.6617403726559350e+00  5.6917780972532572e+00  8.9038951628843641e+00  3.1816901612269755e+00  2.7549023464407334e+00  9.7018567060209637e+00  8.4904700888387516e+00  8.6824391547328066e+00  5.2226129787587210e+00  8.5252199169197351e-01  6.2601225680115116e+00  4.6253733229214546e+00  3.1355029473131526e+00  6.8071448140606474e+00  7.6945899527352619e+00  1.6526929634718619e+00  8.3126733772954573e+00  8.0517210135697788e+00  7.6318249537578362e+00  9.6522611617071306e+00  8.6708485444794725e+00  8.7882562495990033e+00  9.1086033607759198e+00  8.3707781388107296e+00  2.9260188389492399e+00  1.0656269555386055e+00  1.5559304002388197e+00  9.6633003337504668e+00  3.0169402478068199e+00  1.5681716322949093e+00  6.2948419882106057e+00  6.8591265928911378e+00  4.2473734955301881e+00  3.4442981669911230e+00  4.5458647386490911e+00  2.1032780086213618e+00  2.2282806646498554e+00  2.0305175102272721e+00  2.3219383157472662e-01  2.8636279806128004e+00  8.0785222356974273e+00  7.6906211009752861e+00  1.3411183782851108e+00  9.1757097181789238e+00  7.7431737428094936e+00  8.3875209211500525e+00  7.1899839510107739e+00  6.0546350159950411e+00  1.6036715493580422e+00  1.3721804871200067e+00  1.0865880148909512e+00  1.1679334641724408e+00  5.7230394793024280e+00  7.57992