<?xml version="1.0"?>
<VTKFile type="UnstructuredGrid"  version="0.1"  >
<UnstructuredGrid>
<Piece  NumberOfPoints="2513" NumberOfCells="4852">
<Points>
<DataArray  type="Float64"  NumberOfComponents="3"  format="ascii">-1 1 0  -1 -1 0  1 -1 0  1 1 0  0 -1 0  1 0 0  0 1 0  -1 0 0  0 0 0  -1 -0.5 0  -0.5 -1 0  -0.5 1 0  -1 0.5 0  1 -0.5 0  0.5 -1 0  1 0.5 0  0.5 1 0  0.4166666666666666 -0.4166666666666667 0  -0.4166666666666667 0.4166666666666667 0  -0.25 -0.5 0  0.5 0.25 0  -0.4861111111111112 -0.06944444444444445 0  0.0732758620689655 0.507183908045977 0  -0.625 -0.625 0  0.625 0.625 0  0.7380952380952381 -0.25 0  -0.7099116161616161 0.2105429292929293 0  -0.25 0.7380952380952381 0  0.105392156862745 -0.6348039215686275 0  0.6770833333333334 -0.6770833333333333 0  -0.6770833333333334 0.6770833333333334 0  0.3472222222222222 -0.06944444444444446 0  -0.7264957264957265 -0.3044871794871795 0  0.3141940982507127 0.7297313660835709 0  0.02049587951122483 -0.3227479397556124 0  -0.2690972222222223 0.1475694444444444 0  0.3859500089908372 -0.7274430156831472 0  -0.2228477945123298 -0.1761765495248019 0  0.2182539682539683 0.1884920634920635 0  0.75 0.375 0  -0.145442219440968 -0.7602211097204841 0  0.7088913690476191 0.0427827380952381 0  -0.75 -1 0  -1 -0.75 0  1 0.75 0  0.75 1 0  -0.7439982703698937 -0.04614153195464455 0  -0.4609235096577606 -0.3356498099556895 0  0.4063134471431929 0.4895621842856023 0  0.25 -1 0  -0.25 -1 0  -0.75 1 0  0.75 -1 0  -1 -0.25 0  -1 0.25 0  1 -0.25 0  -0.25 1 0  1 -0.75 0  -1 0.75 0  0.25 1 0  1 0.25 0  -0.4041423272138783 -0.7597141090712928 0  0.06500839607911253 0.7578103030529481 0  -0.1572801182352047 0.3838997021864289 0  -0.6528005242053915 0.4409494757946086 0  -0.4930160984848485 0.1544744318181818 0  -0.4732142857142858 0.7752976190476191 0  0.6398809523809523 -0.4538690476190476 0  0.5166054117396399 -0.2161233620965164 0  -0.002273787244753427 0.2232363985975174 0  0.1500564496765022 -0.1524955293952667 0  0.2016720420046758 -0.4410343282803009 0  -0.08495178036419618 0.6274139771124571 0  -0.8367311471133162 0.3642591720794645 0  -0.8333333333333334 -0.625 0  -0.594323836800685 -0.8231079456002283 0  -0.4466957714776065 -0.5349126855671806 0  0.8125 0.5625 0  0.78125 0.78125 0  0.5091392650016769 0.7947130883338923 0  0.125 -0.8382681931833136 0  -0.8184523809523809 -0.8184523809523809 0  -0.07781530426104531 -0.5819319697006881 0  0.5085055196703295 0.04967610411902112 0  0.2918471072074933 -0.276017202318847 0  0.5120763537765269 -0.5898771553229597 0  0.625 -0.8585349462365591 0  0.8158532234335381 -0.8158532234335381 0  -0.5198088446315396 0.5739411553684605 0  -0.8585349462365591 0.625 0  -0.8150493805516597 0.8156205699829586 0  0.8585349462365591 -0.625 0  -0.2688268348649726 0.5439331383603209 0  0.8242100426758139 -0.4436043596336612 0  0.5833756314287952 0.4479378157143976 0  0.8690476190476191 -0.125 0  -0.125 0.8690476190476191 0  -0.8692745600729823 0.125 0  0.8696725120759167 0.125 0  -0.625 0.8711516477451908 0  0.2339522463269718 0.3879558377955778 0  0.2453709502295031 0.5655822922838026 0  0.1730610651637797 0.02021709580868947 0  0.3245402594056757 -0.5644672020485209 0  -0.7291666666666666 -0.4816595441595442 0  -1 -0.375 0  -0.5811140848639904 -0.2127276307675001 0  0.673332592838314 0.2158348143233718 0  0.375 1 0  -0.5714768890989919 0.2985103444040069 0  -1 -0.125 0  -0.8453692574786325 -0.1875 0  -0.3144549134065865 -0.02408675326008025 0  -0.2898414972096258 -0.3336092734780093 0  -0.1075052092206287 -0.4224330421314983 0  -0.05043970703604117 -0.1652278959397459 0  0.6459672950297897 -0.1113415301525317 0  0.4645210271029513 0.6398480556579343 0  0.3512863754411909 0.0937979496253573 0  -0.6063160985568274 0.03891469652249891 0  -0.3428819444444445 0.8690476190476191 0  0.625 1 0  -0.1602164796159982 0.02697860906625157 0  0.04648110064133829 -0.4808416424239687 0  1 0.875 0  -0.3836102479201657 0.6484936449177356 0  -0.3776011723096096 0.263078478984336 0  -0.6024978259969829 -0.3949628096211138 0  0.125 1 0  0.2010781308272777 0.8456221018461906 0  0.2822509696388829 -0.845902544691141 0  -0.3285533674953515 -0.6289773550938936 0  0.3461306793221754 0.278777492464833 0  0.4737475672408696 -0.8508448959534423 0  0.2384632828836344 -0.7029523187242811 0  -0.004777287059791593 0.3759269695907358 0  -0.8499735021850066 -0.3912320205328522 0  0.1222536293721587 0.2963971539625205 0  -0.3769456520999688 -0.203572526805711 0  -0.2749617205755651 -0.8464290792698902 0  0.004805888512766143 -0.747174355248311 0  -0.125 -1 0  -0.06001061822252458 -0.8724007765244854 0  0.875 0.4375 0  0.854421179608893 0.271342359217786 0  0.875 1 0  -0.1499861095763589 0.2358309656934888 0  0.3381943639137225 0.8663061796405532 0  -0.7853090110442228 0.4998412775277108 0  0.7398165998560814 -0.5535192694951373 0  0.1580042122341573 -0.3100246140259917 0  -0.7291666666666667 -0.7142857142857142 0  -0.375 -1 0  0.6483368386154684 0.8514905990110488 0  -0.1295370103291928 -0.2826118305021242 0  0.07458201853700455 0.1123894386563915 0  0.6146465857036327 -0.3161203659316075 0  0.5551898493894731 -0.740296118159085 0  0.375 -1 0  0.482702798370208 -0.084133350091034 0  0.87890625 0.68359375 0  -0.05917195534525846 0.4971092425697621 0  0.1260710309213975 0.6343750312956699 0  0.8690476190476191 -0.3077066815262848 0  -0.2912010232560567 0.3668168386732139 0  -0.875 1 0  -1 0.875 0  1 -0.875 0  0.875 -1 0  -0.8689564281364567 -0.006189266075306407 0  -0.7449425635110547 0.08458938160051771 0  -0.7150266761936593 -0.1739444581417552 0  -0.5260034831318311 -0.711099823962112 0  -0.4724626808827322 -0.871722230709409 0  0.4734436795977052 0.377714794132168 0  -0.875 -1 0  -1 -0.875 0  0.6927189078571988 0.5156567235715964 0  -0.3742497615796874 -0.4296005251260107 0  -0.1969436423297711 -0.6387157229772615 0  -0.6179496409766825 -0.08933356056510935 0  -0.424405057115988 0.04452428810878029 0  -0.08479048335844169 0.1279607007132633 0  0.003830300099055113 0.8712085230656206 0  0.8748778838820267 -1.379218479898026e-05 0  -0.375 1 0  -0.625 1 0  1 0.125 0  -0.125 1 0  1 -0.375 0  1 -0.125 0  1 -0.625 0  0.625 -1 0  0.125 -1 0  -0.625 -1 0  -1 -0.625 0  -1 0.125 0  -1 0.375 0  -1 0.625 0  1 0.375 0  1 0.625 0  0.6325660748712082 0.3335187599557389 0  -0.06420945895056573 0.7549874027425891 0  -0.8769015540914771 0.2478802253893416 0  0.871875 0.871875 0  -0.6868091492840067 0.3270978624973681 0  -0.5363597469565949 0.412994850055505 0  -0.6803734992638302 0.5574295000651103 0  -0.7076253581162534 -0.8803439094224437 0  -0.8778089002295137 -0.5106896447504627 0  -0.3860184984222981 0.530566778071246 0  0.6109900617121508 0.1128453077697081 0  0.3896945134930274 -0.1915382873255086 0  0.7605656944697778 -0.06822134873122943 0  0.3576151269893478 0.5948388411612135 0  -0.5689902680792265 -0.5143596830118065 0  0.6262446286847614 -0.5735657901943212 0  0.2030558252325225 -0.5625263842513452 0  0.6123273142928579 0.7407533260723429 0  0.4016460890123554 -0.3042863223111857 0  -0.59039693199147 0.7578418819188018 0  0.7276932493917544 -0.3705808024528924 0  0.5222536818742854 -0.4713886230400014 0  -0.5101986527137737 0.8848365765607674 0  0.510560172809238 0.5356013299918891 0  -0.3603569195756083 0.75823710606415 0  0.1967279277813232 0.728226870058472 0  -0.6086880986371127 0.1545624071548516 0  -0.38105366729386 0.1511189987807864 0  -0.2944659463671584 -0.7359061804869591 0  0.5060729154966499 -0.3475227845833823 0  -0.09281616240412746 -0.06197858250969457 0  0.7649739583333334 0.6673177083333334 0  0.7628906249999999 0.890234375 0  -0.2666864184909611 0.2585504071132311 0  0.3635064892129658 0.3878003602709461 0  -0.2339409722222222 0.8901937905844155 0  -0.1718792125974916 -0.8957733325456778 0  0.1001768566329531 0.4023510017391879 0  0.3120260172693757 -0.4540546875576884 0  0.7804062804433681 0.1896628610854537 0  0.4087715451998049 0.187961780041608 0  -0.1584963477271457 0.5451611892421655 0  -0.8926817849258324 0.463022006336401 0  0.2338091473445219 -0.07576267331277289 0  0.08171112182813692 -0.2349087687359925 0  0.04635385178956847 -0.1044635073718474 0  -0.4377391632114205 -0.6448874471423088 0  -0.1907678351227189 0.6480215912813945 0  0.300605946475244 0.4741444604171038 0  -0.2145033720757486 -0.06751709909419711 0  0.6069191921170397 -0.005492331448357812 0  0.0214718770761248 0.6032397936031719 0  0.5476675683364878 0.8992752415326501 0  0.4387475014316537 0.9093708953002239 0  -0.4932997685306436 -0.4381009159993523 0  0.2515197695339056 -0.1791673369138964 0  -0.7291666666666667 -0.6088789682539681 0  -0.9166666666666667 -0.6875 0  0.620579540363709 -0.2122431523583302 0  -0.484950136419973 0.6719440339397442 0  0.2857044415400258 0.0137589173127316 0  -0.8945708364098356 -0.288306105327986 0  0.4043102720140535 0.7842914560451557 0  0.04123256238752064 -0.9026968245801402 0  0.2003676884403109 -0.9091888601740487 0  0.1068775558538842 -0.7373377130403223 0  -0.4804566783514427 -0.1763307203045643 0  0.108286342087769 -0.3993789328997278 0  -0.191883080105361 -0.3640821726430649 0  -0.07025064492006244 0.2984876656890053 0  -0.7039324641409584 0.788312126296613 0  -0.7311286585775438 0.8932502354831682 0  0.5171409396884947 0.1503852691889257 0  0.4229392823658633 -0.003216522184234835 0  -0.5621736087218259 -0.919558629836806 0  -0.626474064879544 -0.7266572613636506 0  0.2446828746617422 0.2867616783302419 0  0.1759429608742923 0.4776611759306416 0  -0.3468240303741654 -0.5260416435617549 0  -0.7465808808425306 0.4069574477998361 0  -0.7819962170660292 0.2802441065650652 0  -0.3742623214119594 -0.8547800509641984 0  0.1014498009713561 0.8506721983266377 0  0.4285217620918213 -0.5230190595570253 0  0.4091738370487775 -0.6256346204225141 0  0.78125 0.46875 0  0.90625 0.53125 0  -0.4791801348852565 0.2553992655702126 0  0.7843318610782772 -0.7086046956885941 0  0.8909728264971901 -0.7355183796514634 0  0.7041908166528879 -0.7830649143180282 0  0.7311821352
[...]
<PointData  Scalars="velocity-2"> 
<DataArray  type="Float64"  Name="velocity-2"  format="ascii">0.0000000000000000e+00  0.0000000000000000e+00  1.0000000000000000e+01  1.0000000000000000e+01  5.0366601644228366e+00  1.0000000000000000e+01  5.0366575255166284e+00  0.0000000000000000e+00  5.0366402857336690e+00  0.0000000000000000e+00  2.5242181543543118e+00  2.5242282259931592e+00  0.0000000000000000e+00  1.0000000000000000e+01  7.5276252722241246e+00  1.0000000000000000e+01  7.5276144190583931e+00  7.1140429743858675e+00  2.9441049970213391e+00  3.7826611044875675e+00  7.5276061524791587e+00  2.5942149909362930e+00  5.4031710593202522e+00  1.8938029139429229e+00  8.1469307395415047e+00  8.7063720493760997e+00  1.4652211148877783e+00  3.7826659411199768e+00  5.5636636676956162e+00  8.4046537159600021e+00  1.6309484335615951e+00  6.7689537291872153e+00  1.3815142813725929e+00  6.6046549234135172e+00  5.1392295742270377e+00  3.6866849957823074e+00  6.9614680913856422e+00  3.9190963878994363e+00  6.1268626089959302e+00  8.7652254216604710e+00  4.3077220285293647e+00  8.5619745888673151e+00  1.2628252064343666e+00  0.0000000000000000e+00  1.0000000000000000e+01  8.7652258351343608e+00  1.2931284408368151e+00  2.7211663209474350e+00  7.0626071059305238e+00  6.2850784235081765e+00  3.7826789815004465e+00  1.2628155212750589e+00  8.7652336876020485e+00  0.0000000000000000e+00  0.0000000000000000e+00  1.0000000000000000e+01  3.7826616213686552e+00  1.0000000000000000e+01  0.0000000000000000e+00  6.2850729232083342e+00  1.0000000000000000e+01  3.0071817004023851e+00  5.3618562393364222e+00  4.2483417134310635e+00  1.7535020342039602e+00  2.5594188741500048e+00  2.6592115228971975e+00  8.2205879026301236e+00  7.6099530381357923e+00  5.0252699137192032e+00  5.7866975875386828e+00  6.0441938410003315e+00  4.6111145777339688e+00  8.2480956732678723e-01  8.4197858883360011e-01  2.0485665010708374e+00  2.7928486649278681e+00  9.0740792119583080e+00  8.9196673193008476e+00  7.5729338938099495e+00  5.6616066378921150e+00  9.1713728290423768e-01  4.6468985920339092e+00  7.5698011469176008e+00  6.4934418531205358e+00  7.5875001551433021e+00  8.1469172380376502e+00  9.0906471473751402e+00  2.4243597962597101e+00  7.1467276464783980e-01  9.3431936776140956e-01  9.3014773745956987e+00  3.6880484283455917e+00  9.1319309779817974e+00  7.9408201588492808e+00  9.3533978396619499e+00  4.4102925755001232e+00  6.6042335182404766e-01  9.3564856162352754e+00  1.8937873548667918e+00  6.2050971738974008e+00  6.2619994398901797e+00  5.9014790022010084e+00  6.6561461647761240e+00  1.3680137897066231e+00  0.0000000000000000e+00  2.1152119088481949e+00  8.3861029479528018e+00  6.9070459395035551e+00  2.1638018446430460e+00  0.0000000000000000e+00  7.8117856245482065e-01  3.4585703827810685e+00  3.5824026399193789e+00  4.4980665941733831e+00  4.7840783560316353e+00  8.2506895226657413e+00  7.3516109979103197e+00  6.7891511915279672e+00  1.9880723215736709e+00  3.3155567679014624e+00  8.1469294123762115e+00  4.2336047064697162e+00  5.2692009548586594e+00  1.0000000000000000e+01  3.1105625656780131e+00  3.1408040641701147e+00  2.0073254444977846e+00  5.6616235580605121e+00  6.0412294041371339e+00  6.4456801016923313e+00  3.3876684484684154e+00  6.7635230366813213e+00  7.3973852090051686e+00  6.2275780336330850e+00  5.0127494256392895e+00  7.5791944707580439e-01  5.6478784247079830e+00  3.1441100822914687e+00  3.6571823092502327e+00  5.0607254782322562e+00  4.4102977521750724e+00  4.7361059997132369e+00  9.3827996665225069e+00  9.2811595815651202e+00  9.3827957069758501e+00  4.2849382573665311e+00  6.7240511205659850e+00  1.0845333542525080e+00  8.7148761532478485e+00  5.8263515970326925e+00  1.3680246328391035e+00  3.1539216509467023e+00  8.2624238869181230e+00  4.3875420968988657e+00  5.4096953516729371e+00  8.0956853188408200e+00  7.8011984888146566e+00  6.9070589153732636e+00  7.4418166468675979e+00  9.4020887261994428e+00  4.7403100469488413e+00  5.6669568790372304e+00  9.3534044867527886e+00  3.5755449719398729e+00  6.3150310845300184e-01  0.0000000000000000e+00  1.0000000000000000e+01  9.3827982723099304e+00  6.6202926613663993e-01  1.2883527788175431e+00  1.4394071193912621e+00  2.3931309437797457e+00  2.6629979851169758e+00  7.3958776353493461e+00  6.3150401241264709e-01  0.0000000000000000e+00  8.4819943384428971e+00  3.1576768990055828e+00  4.0492255796707708e+00  1.9293679626651219e+00  2.9051397295545289e+00  4.6119306456557529e+00  5.0558307888746974e+00  9.3821968929839308e+00  3.1539223781785433e+00  1.8937872844063206e+00  1.0000000000000000e+01  4.4102967911538986e+00  1.0000000000000000e+01  1.0000000000000000e+01  1.0000000000000000e+01  8.1469251823586077e+00  5.6616257382758475e+00  1.8938006021216518e+00  0.0000000000000000e+00  0.0000000000000000e+00  0.0000000000000000e+00  0.0000000000000000e+00  1.0000000000000000e+01  1.0000000000000000e+01  8.1843764520510760e+00  4.7150830839470217e+00  6.2189030707789417e-01  9.3673655330969048e+00  1.5818568456292355e+00  2.3409215465761659e+00  1.6143410189582754e+00  1.4767759808090983e+00  6.1731266246796690e-01  3.0984494071447126e+00  8.0775628714678174e+00  6.9800811226768360e+00  8.8174444138243562e+00  6.8206065215130316e+00  2.1763589278128479e+00  8.1530851937203703e+00  6.0510975003443876e+00  8.0841770493525420e+00  7.0394480018295562e+00  2.0683747680882885e+00  8.6549471505063114e+00  7.6379384155486809e+00  2.4728176405471287e+00  7.5799703313365914e+00  3.2276170386092731e+00  6.0195276990738407e+00  1.9761022370146761e+00  3.1234249554416800e+00  3.5591241069086821e+00  7.5577334909874416e+00  4.5716784809127864e+00  8.8392329074729012e+00  8.8289308921142311e+00  3.6987869109321228e+00  6.8499041507482188e+00  3.8633640601176520e+00  4.1750336732923437e+00  5.5376043474662424e+00  6.5938556314622616e+00  8.9154972387867861e+00  7.0748220781427511e+00  4.2422182316006474e+00  5.4217836591969282e-01  6.2043949121095254e+00  5.4453447107385813e+00  5.2685767731473048e+00  2.8379658643723329e+00  4.0802178510494391e+00  6.5370395405887436e+00  3.9609902864293556e+00  8.0574044064615435e+00  5.1441151643765135e+00  7.7639071807247459e+00  7.2236770493717941e+00  2.5579826423525605e+00  6.2926191181232820e+00  1.3680282955843495e+00  4.2101088561248368e-01  8.1250495305828760e+00  2.6000812834120208e+00  6.4628744955816479e+00  5.3263880418132348e-01  7.0526745452144270e+00  5.2429405728124854e+00  6.0376921668560204e+00  5.5711078567736001e+00  2.6227156794837052e+00  5.5781228631495603e+00  4.0746345967630058e+00  4.6847971385531375e+00  1.4954136707941061e+00  1.3581092113397395e+00  7.6125986841233448e+00  7.1451999164318796e+00  2.2107271093154286e+00  1.8863707053544161e+00  6.2585767570402737e+00  5.9158568115270684e+00  3.2957287060382190e+00  1.2800911019622940e+00  1.1012543741110130e+00  3.1576228080187163e+00  5.5439790443915600e+00  7.1729227979037855e+00  7.0768377578288701e+00  8.9196691146063039e+00  9.5371204440021344e+00  2.6291550594234367e+00  8.9349008194760735e+00  9.4616752999298530e+00  8.5387214205809734e+00  8.6721924441612668e+00  4.1397919369855463e-01  4.7054117283680857e-01  1.0898640155924941e+00  3.8645763133657067e+00  1.0117848689142133e+00  5.1714910318222473e-01  4.5860026986820979e-01  8.7955172656984248e-01  8.7053025766200787e-01  9.4703670051268727e+00  3.5957263515381817e+00  2.1125325149383354e+00  6.9248795203949900e+00  4.6543503759288756e+00  5.1491281719215785e+00  4.1987027991086769e+00  1.1692732938302857e+00  6.6011826161274927e+00  5.6412534799176788e+00  3.0970208413413673e+00  3.3848070357078641e+00  3.9672572866680628e-01  7.8373992789992331e+00  9.4831967147421050e+00  9.5393915086228631e+00  9.3847291084353337e+00  2.3768253662688581e+00  2.6642152296250883e+00  2.0451693025111517e+00  6.2388797777762726e+00  8.7431437778675161e+00  3.3927139563632780e+00  6.6391189841278830e+00  6.2043542558012810e+00  4.2352077961982300e+00  7.3966892278907634e+00  4.1399138103334465e+00  1.8790349269939757e+00  8.6881237941070104e+00  3.4684166445682192e+00  8.9140037772242469e+00  8.6963958970777389e-01  9.5407382741166611e+00  3.3865225558161322e-01  2.4502106813875062e+00  8.3652437322412005e+00  8.0307553649261045e+00  7.9681406428441726e+00  4.7236307106388091e+00  1.0721799522901931e+00  3.3022840424433697e-01  9.0208499296560358e+00  9.6782700915254587e+00  3.4916690423769499e+00  6.5962069997660979e+00  7.6670766209764603e+00  7.2174981835103100e+00  9.6781349502941865e+00  9.0740855363717987e+00  6.4564758290319864e+00  5.6820141798111434e+00  2.8391532221344216e+00  1.2286065675047071e+00  1.0490111086910545e+00  1.6869394927028150e+00  9.6778853406010494e+00  3.1648876722087799e-01  3.1684980239040106e-01  9.6782702916669106e+00  9.6767278950893356e+00  5.3492833848980270e+00  4.0683054222750425e-01  9.6763582480760704e+00  8.5667803515534828e+00  7.9376245661864404e+00  5.6036204979506419e+00  5.9711108766140422e+00  8.4561763868899078e+00  6.9588935149998594e+00  6.7372741667944291e+00  5.0456892869784715e+00  5.4609343980337606e+00  3.3022367423248883e-01  1.5830088290136048e+00  8.5338222353247630e+00  3.7928151106663757e+00  4.2807261981627693e+00  2.6532046792332049e+00  5.0106309997212639e+00  5.9734930238418507e+00  2.4891770208763186e+00  3.5952162839740236e+00  3.1525125943519727e+00  3.9235558334423746e+00  7.9158451798540801e+00  7.2354285295650946e+00  9.1214391953086000e+00  5.0661891693776342e+00  2.4593685469400617e+00  9.7081978692155946e-01  3.5505775946549449e+00  8.6804980786844617e+00  9.1935307632266454e+00  4.2101107897389428e-01  3.7388180802914400e-01  7.8547686257454092e+00  8.5007026546513185e+00  3.9434273385447618e+00  8.4386037145218395e+00  4.4061874452985261e+00  6.3492652882930418e+00  7.7494985536047976e+00  2.8710295839196083e+00  2.2661317536783252e+00  4.8042183528747273e+00  4.9831969462529280e+00  4.7125818816590792e+00  5.7468851153469709e+00  2.2553843322924148e+00  1.8040759874398489e+00  1.9809908643782872e+00  1.8339169494772447e+00  2.2974717859037392e+00  2.2090917331438447e+00  4.6596281337234018e+00  5.0217190527491811e+00  4.1008834369064449e+00  7.5370175700595885e+00  6.3086930351107542e+00  1.6931241639461740e+00  2.2676242155630959e+00  8.7536020491573563e+00  4.3544170334536387e+00  7.0962533345117631e+00  7.7402231208371255e+00  7.2071609263453977e+00  2.8391781367510509e+00  6.1074760480972792e+00  3.5338531641616373e+00  3.5571317427021478e+00  5.8191403027552413e+00  5.0782583686208147e+00  5.6378838681801486e+00  6.0639698157332225e+00  4.6378318531915985e+00  3.1690036576949585e+00  2.9965708846727028e+00  9.1132976802384444e+00  9.6892769364703106e+00  6.6181937390724226e+00  4.4468799730884706e-01  4.2865903953570079e+00  7.2964387831429898e+00  3.4139014943165331e+00  9.1448230869244718e+00  2.8868925381477424e+00  6.5343532640508153e+00  3.9068941976667682e+00  2.7891553026987523e+00  9.6507739440743698e+00  5.2091818970160608e-01  5.7777166171289247e+00  8.1455702812981077e+00  9.4012142693081451e+00  3.1576101038913112e-01  8.9512323518508854e+00  4.0966334189729690e+00  3.3648320813595651e+00  1.6172773094163420e+00  3.9795262014332061e-01  6.3576345046832898e+00  1.0503546175683627e+00  1.6945286047809733e+00  1.7275982202701043e+00  5.2095338543054011e+00  5.2180208217793265e+00  8.4561941990904010e+00  8.3318367686096515e+00  6.2848515820064472e+00  1.0000000000000000e+01  2.9059141280091070e+00  9.6192840894091047e-01  7.7723619326838440e+00  3.6135445536323441e+00  3.1511183641253364e+00  4.6871486965518372e+00  1.8583957878127935e+00  1.5783503950899411e+00  7.9051423994364765e+00  8.6190432520816511e+00  2.3281471422848115e+00  2.2343273426243941e+00  6.5962405191107276e+00  3.0761966956240592e+00  5.8540337954170401e+00  2.9267305268969674e+00  4.3147355015372657e+00  3.9986468762933196e+00  4.6531665917222673e+00  1.0000000000000000e+01  9.3188208202167679e+00  7.6850933961640697e+00  7.3383388687264679e+00  7.3755342177629102e-01  8.4715137128250504e+00  7.9632788561282037e+00  6.4996504407232498e+00  4.9019602208922342e+00  1.5783624015280262e+00  9.6728933872673419e+00  4.1840051330136347e+00  3.8192010363960933e+00  1.4261000294570376e+00  9.3846654812549390e-01  7.2578790894245513e+00  8.1115045468201235e+00  4.0319524074145834e+00  5.2119938874579850e+00  5.8528095459100360e+00  5.9116495502631237e+00  5.6282326253173416e+00  1.8639892556306286e+00  7.9418768266669559e+00  0.0000000000000000e+00  1.7360862325844038e+00  2.1007328340737579e+00  4.5028235049733034e+00  2.9043800637101382e+00  3.3856299047776313e+00  9.2012625347866503e+00  7.0845597760582733e+00  7.3275263432808933e+00  4.6254486164120667e+00  3.5735225689318773e-01  8.4318121299341939e+00  4.4035434081698277e+00  4.9217116907932272e+00  4.9484514453851238e+00  1.0000000000000000e+01  8.2769258793498146e+00  7.8763393848527929e+00  8.3587035585830698e+00  3.2575557907872081e+00  9.6914233348601204e+00  9.2284539824965552e+00  9.6406257453749848e+00  0.0000000000000000e+00  9.6914237792976277e+00  4.4413151997689786e+00  1.2148360744798641e+00  1.5760071391507982e+00  6.6264397742752905e+00  6.6474134671731155e+00  6.8858084242346385e+00  6.8007702313343019e+00  9.6580982394561747e+00  9.0905630323971032e+00  5.9114251292644022e+00  5.4897656146696754e+00  7.8743226075468109e-01  3.9091304110951763e+00  5.4083788553522041e+00  3.7059959692284012e+00  2.6159810743902687e+00  1.1425947822611011e+00  1.6547802202430286e+00  1.1050192986990894e+00  3.4281697788714163e+00  8.4655230599604465e+00  1.9502730589241388e+00  7.0822417007145608e+00  0.0000000000000000e+00  2.3059304969730521e+00  9.6672017265291394e+00  6.2214434144362551e-01  6.8367814193396459e+00  5.3020181699697888e+00  3.1925267676322431e+00  6.0980755186167235e+00  5.3209823774076819e+00  4.7365597003197530e+00  5.0350642733607769e+00  7.2887565227359898e+00  9.6767969337564299e+00  9.9732881408883878e-01  9.0341751832775437e+00  5.3858857648230556e+00  9.6845212058458774e+00  5.7894982354045936e+00  6.7679055094844482e+00  5.0605031172144077e+00  2.1729191548954314e+00  4.5821922739551759e+00  1.0000000000000000e+01  5.4218227737619813e+00  1.1231431198375863e+00  6.5371379712538049e+00  1.4068665676109440e+00  4.4046048900140011e+00  9.0257571134040440e+00  7.5294547163343930e+00  1.2515661160960174e+00  1.1471888498547471e+00  3.3516608798921532e+00  9.4064345543463324e-01  2.1591623594840619e+00  2.5387257455599541e+00  2.3350650533084871e+00  2.7872412632387831e+00  2.6794601841939238e+00  9.6767281026136054e+00  1.0000000000000000e+01  1.3904621935695276e+00  5.4337775228846574e+00  8.1538932550222523e+00  7.4314193875952679e+00  7.1413620270139155e+00  7.7264348381929917e+00  9.2541939259736665e+00  4.0966420059338242e+00  8.7983236653827745e+00  3.8354553410235828e+00  4.0859191166612536e+00  6.2939911802854382e+00  9.1426418044207303e+00  5.7285665267410177e+00  3.2048773871677985e+00  8.3261952815631055e+00  4.3891910113559875e+00  5.8843414682858279e+00  8.3637600505217939e+00  8.2302217791913588e+00  5.3493082281450750e+00  0.0000000000000000e+00  9.1602913985635368e+00  0.0000000000000000e+00  8.1317927236256473e+00  4.7246792823942005e+00  2.8456779483664394e+00  2.8679817695039045e+00  2.9110885754203704e+00  6.8035100297043281e+00  4.3421087385809356e+00  7.8374132980318496e+00  1.3182716229368607e+00  3.9822170619939472e+00  8.5780454266051827e+00  7.6104078418576977e+00  1.3680143179065505e+00  4.3550496433437820e+00  4.4058934146710431e+00  5.2981392467221191e+00  8.9154025554507736e+00  7.9074874353185933e+00  6.9091020904457405e+00  6.3796779184050179e+00  8.5185452859833859e+00  9.3696072436632232e+00  9.6911208536838309e+00  7.5237165794139242e+00  7.5803904976401171e-01  5.0369332604739938e+00  3.4686156199559437e-01  5.6592351813042105e+00  9.6911495124569154e+00  1.0000000000000000e+01  1.0000000000000000e+01  9.0740730687488789e+00  3.4684176399802680e+00  8.4561914054258498e+00  0.0000000000000000e+00  3.1576221733257664e-01  5.3493147691404372e+00  0.0000000000000000e+00  1.0000000000000000e+01  2.8391748027609163e+00  9.0740775287080400e+00  1.0000000000000000e+01  7.2175017825081884e+00  6.5962431594834312e+00  1.0000000000000000e+01  1.0000000000000000e+01  1.0000000000000000e+01  0.0000000000000000e+00  0.0000000000000000e+00  0.0000000000000000e+00  4.7236462720610675e+00  0.0000000000000000e+00  3.4684194194686881e+00  7.8374102960565803e+00  0.0000000000000000e+00  9.4719340555203957e-01  9.4719782924878937e-01  0.0000000000000000e+00  2.2090942406090583e+00  5.9735250425957069e+00  0.0000000000000000e+00  7.2174987340220387e+00  1.0000000000000000e+01  1.0000000000000000e+01  9.6914226879121994e+00  0.0000000000000000e+00  5.9735229513356423e+00  0.0000000000000000e+00  4.7236248211349698e+00  1.0000000000000000e+01  1.0000000000000000e+01  2.3622466155785657e+00  7.6149357353643738e+00  2.7433686109037636e-01  6.2299256044420019e+00  5.8721324374470383e+00  8.0348843190184613e+00  3.9362168109191749e+00  2.2210787131185179e+00  2.4632076710648474e+00  1.9882204384278415e+00  9.0216733556562563e+00  1.7361009892745363e+00  2.9771924638599639e-01  1.4799920452837267e+00  8.6095475068718521e+00  6.4060925488031717e-01  7.9802520388983400e-01  3.1055094734590682e-01  6.4508784093912774e-01  4.7363813177866104e-01  7.1037922470420400e-01  6.6061691370411346e-01  9.0521529131540941e+00  8.7141438332913825e+00  2.3525911423492212e+00  5.6923971290789179e+00  9.6592352582517140e+00  9.3088983653205493e-01  6.4627914104374318e+00  4.2668554154970293e+00  1.4037053167204421e+00  3.9671141754372674e+00  2.9297485930290117e+00  3.6288867195027290e+00  7.6953559543988321e+00  9.2059350765469929e+00  2.1565134655269196e+00  8.8701113362060156e+00  8.5928173369979461e+00  6.7952283112370377e+00  3.4930555903482068e+00  4.8475598065707644e+00  7.0421970927600315e+00  2.6647551719452709e+00  5.4430358023137000e+00  9.0229490279793989e+00  2.9085669301640986e+00  6.3139056259207296e+00  8.2870758387221439e+00  7.7762145142981236e+00  8.2303493275781623e+00  3.0428921276330539e-01  2.6401236007468580e+00  2.3388417576518439e+00  2.0516546713804540e+00  1.3425794406841998e+00  1.6978315318218116e+00  4.1632348309403433e+00  5.2714061010730298e+00  4.9106840783049863e+00  7.8121985634352047e+00  9.3859786300021977e+00  9.1659120099132636e+00  7.4911114573659354e+00  7.3199183396887628e+00  4.0099936225374879e+00  5.3011059076973144e+00  1.2289720566610529e+00  1.4178809564559038e+00  1.8773694652430326e+00  1.6855296943195448e+00  2.0260943605205344e+00  1.9234395971339098e+00  1.7563043390377802e+00  6.4281126111594959e+00  6.3503881571139997e+00  3.9030105538546187e+00  5.9437350036283814e+00  8.9886658045836061e+00  3.4051911722083013e+00  2.9580082692035083e+00  9.7253044702690445e+00  8.6053360085758470e+00  8.7835506646020622e+00  5.4814986850606040e+00  9.2395999942148210e-01  6.4966704194828155e+00  4.8848779818468042e+00  3.3569498993141185e+00  7.0221443157221817e+00  7.8621615452065825e+00  1.7861563590972556e+00  8.4400471616905133e+00  8.1966756176858002e+00  7.8031796746446851e+00  9.6795864016948467e+00  8.7727768611800183e+00  8.8816194324197930e+00  9.1779755492477761e+00  8.4940769459369623e+00  3.1376903256297179e+00  1.1542845064984326e+00  1.6823130981992376e+00  9.6897606188549918e+00  3.2329539686190429e+00  1.6954534721900105e+00  6.5301634334736827e+00  7.0716421211857510e+00  4.5025471515971223e+00  3.6781340235818103e+00  4.8048037461936453e+00  2.2678691183886013e+00  2.4008902745026828e+00  2.1903472970076270e+00  2.5189826128705306e-01  3.0722436461761840e+00  8.2216927079870548e+00  7.8584794709290406e+00  1.4512938777677618e+00  9.2399470428903232e+00  7.9077850767050002e+00  8.5096661513729650e+00  7.3862353297192689e+00  6.2975655592266122e+00  1.7335955542904122e+00  1.4847522451613580e+00  1.1768893696921030e+00  1.2646670519984022e+00  5.9743608569444238e+00  7.75440