<?xml version="1.0"?>
<VTKFile type="UnstructuredGrid"  version="0.1"  >
<UnstructuredGrid>
<Piece  NumberOfPoints="2513" NumberOfCells="4852">
<Points>
<DataArray  type="Float64"  NumberOfComponents="3"  format="ascii">-1 1 0  -1 -1 0  1 -1 0  1 1 0  0 -1 0  1 0 0  0 1 0  -1 0 0  0 0 0  -1 -0.5 0  -0.5 -1 0  -0.5 1 0  -1 0.5 0  1 -0.5 0  0.5 -1 0  1 0.5 0  0.5 1 0  0.4166666666666666 -0.4166666666666667 0  -0.4166666666666667 0.4166666666666667 0  -0.25 -0.5 0  0.5 0.25 0  -0.4861111111111112 -0.06944444444444445 0  0.0732758620689655 0.507183908045977 0  -0.625 -0.625 0  0.625 0.625 0  0.7380952380952381 -0.25 0  -0.7099116161616161 0.2105429292929293 0  -0.25 0.7380952380952381 0  0.105392156862745 -0.6348039215686275 0  0.6770833333333334 -0.6770833333333333 0  -0.6770833333333334 0.6770833333333334 0  0.3472222222222222 -0.06944444444444446 0  -0.7264957264957265 -0.3044871794871795 0  0.3141940982507127 0.7297313660835709 0  0.02049587951122483 -0.3227479397556124 0  -0.2690972222222223 0.1475694444444444 0  0.3859500089908372 -0.7274430156831472 0  -0.2228477945123298 -0.1761765495248019 0  0.2182539682539683 0.1884920634920635 0  0.75 0.375 0  -0.145442219440968 -0.7602211097204841 0  0.7088913690476191 0.0427827380952381 0  -0.75 -1 0  -1 -0.75 0  1 0.75 0  0.75 1 0  -0.7439982703698937 -0.04614153195464455 0  -0.4609235096577606 -0.3356498099556895 0  0.4063134471431929 0.4895621842856023 0  0.25 -1 0  -0.25 -1 0  -0.75 1 0  0.75 -1 0  -1 -0.25 0  -1 0.25 0  1 -0.25 0  -0.25 1 0  1 -0.75 0  -1 0.75 0  0.25 1 0  1 0.25 0  -0.4041423272138783 -0.7597141090712928 0  0.06500839607911253 0.7578103030529481 0  -0.1572801182352047 0.3838997021864289 0  -0.6528005242053915 0.4409494757946086 0  -0.4930160984848485 0.1544744318181818 0  -0.4732142857142858 0.7752976190476191 0  0.6398809523809523 -0.4538690476190476 0  0.5166054117396399 -0.2161233620965164 0  -0.002273787244753427 0.2232363985975174 0  0.1500564496765022 -0.1524955293952667 0  0.2016720420046758 -0.4410343282803009 0  -0.08495178036419618 0.6274139771124571 0  -0.8367311471133162 0.3642591720794645 0  -0.8333333333333334 -0.625 0  -0.594323836800685 -0.8231079456002283 0  -0.4466957714776065 -0.5349126855671806 0  0.8125 0.5625 0  0.78125 0.78125 0  0.5091392650016769 0.7947130883338923 0  0.125 -0.8382681931833136 0  -0.8184523809523809 -0.8184523809523809 0  -0.07781530426104531 -0.5819319697006881 0  0.5085055196703295 0.04967610411902112 0  0.2918471072074933 -0.276017202318847 0  0.5120763537765269 -0.5898771553229597 0  0.625 -0.8585349462365591 0  0.8158532234335381 -0.8158532234335381 0  -0.5198088446315396 0.5739411553684605 0  -0.8585349462365591 0.625 0  -0.8150493805516597 0.8156205699829586 0  0.8585349462365591 -0.625 0  -0.2688268348649726 0.5439331383603209 0  0.8242100426758139 -0.4436043596336612 0  0.5833756314287952 0.4479378157143976 0  0.8690476190476191 -0.125 0  -0.125 0.8690476190476191 0  -0.8692745600729823 0.125 0  0.8696725120759167 0.125 0  -0.625 0.8711516477451908 0  0.2339522463269718 0.3879558377955778 0  0.2453709502295031 0.5655822922838026 0  0.1730610651637797 0.02021709580868947 0  0.3245402594056757 -0.5644672020485209 0  -0.7291666666666666 -0.4816595441595442 0  -1 -0.375 0  -0.5811140848639904 -0.2127276307675001 0  0.673332592838314 0.2158348143233718 0  0.375 1 0  -0.5714768890989919 0.2985103444040069 0  -1 -0.125 0  -0.8453692574786325 -0.1875 0  -0.3144549134065865 -0.02408675326008025 0  -0.2898414972096258 -0.3336092734780093 0  -0.1075052092206287 -0.4224330421314983 0  -0.05043970703604117 -0.1652278959397459 0  0.6459672950297897 -0.1113415301525317 0  0.4645210271029513 0.6398480556579343 0  0.3512863754411909 0.0937979496253573 0  -0.6063160985568274 0.03891469652249891 0  -0.3428819444444445 0.8690476190476191 0  0.625 1 0  -0.1602164796159982 0.02697860906625157 0  0.04648110064133829 -0.4808416424239687 0  1 0.875 0  -0.3836102479201657 0.6484936449177356 0  -0.3776011723096096 0.263078478984336 0  -0.6024978259969829 -0.3949628096211138 0  0.125 1 0  0.2010781308272777 0.8456221018461906 0  0.2822509696388829 -0.845902544691141 0  -0.3285533674953515 -0.6289773550938936 0  0.3461306793221754 0.278777492464833 0  0.4737475672408696 -0.8508448959534423 0  0.2384632828836344 -0.7029523187242811 0  -0.004777287059791593 0.3759269695907358 0  -0.8499735021850066 -0.3912320205328522 0  0.1222536293721587 0.2963971539625205 0  -0.3769456520999688 -0.203572526805711 0  -0.2749617205755651 -0.8464290792698902 0  0.004805888512766143 -0.747174355248311 0  -0.125 -1 0  -0.06001061822252458 -0.8724007765244854 0  0.875 0.4375 0  0.854421179608893 0.271342359217786 0  0.875 1 0  -0.1499861095763589 0.2358309656934888 0  0.3381943639137225 0.8663061796405532 0  -0.7853090110442228 0.4998412775277108 0  0.7398165998560814 -0.5535192694951373 0  0.1580042122341573 -0.3100246140259917 0  -0.7291666666666667 -0.7142857142857142 0  -0.375 -1 0  0.6483368386154684 0.8514905990110488 0  -0.1295370103291928 -0.2826118305021242 0  0.07458201853700455 0.1123894386563915 0  0.6146465857036327 -0.3161203659316075 0  0.5551898493894731 -0.740296118159085 0  0.375 -1 0  0.482702798370208 -0.084133350091034 0  0.87890625 0.68359375 0  -0.05917195534525846 0.4971092425697621 0  0.1260710309213975 0.6343750312956699 0  0.8690476190476191 -0.3077066815262848 0  -0.2912010232560567 0.3668168386732139 0  -0.875 1 0  -1 0.875 0  1 -0.875 0  0.875 -1 0  -0.8689564281364567 -0.006189266075306407 0  -0.7449425635110547 0.08458938160051771 0  -0.7150266761936593 -0.1739444581417552 0  -0.5260034831318311 -0.711099823962112 0  -0.4724626808827322 -0.871722230709409 0  0.4734436795977052 0.377714794132168 0  -0.875 -1 0  -1 -0.875 0  0.6927189078571988 0.5156567235715964 0  -0.3742497615796874 -0.4296005251260107 0  -0.1969436423297711 -0.6387157229772615 0  -0.6179496409766825 -0.08933356056510935 0  -0.424405057115988 0.04452428810878029 0  -0.08479048335844169 0.1279607007132633 0  0.003830300099055113 0.8712085230656206 0  0.8748778838820267 -1.379218479898026e-05 0  -0.375 1 0  -0.625 1 0  1 0.125 0  -0.125 1 0  1 -0.375 0  1 -0.125 0  1 -0.625 0  0.625 -1 0  0.125 -1 0  -0.625 -1 0  -1 -0.625 0  -1 0.125 0  -1 0.375 0  -1 0.625 0  1 0.375 0  1 0.625 0  0.6325660748712082 0.3335187599557389 0  -0.06420945895056573 0.7549874027425891 0  -0.8769015540914771 0.2478802253893416 0  0.871875 0.871875 0  -0.6868091492840067 0.3270978624973681 0  -0.5363597469565949 0.412994850055505 0  -0.6803734992638302 0.5574295000651103 0  -0.7076253581162534 -0.8803439094224437 0  -0.8778089002295137 -0.5106896447504627 0  -0.3860184984222981 0.530566778071246 0  0.6109900617121508 0.1128453077697081 0  0.3896945134930274 -0.1915382873255086 0  0.7605656944697778 -0.06822134873122943 0  0.3576151269893478 0.5948388411612135 0  -0.5689902680792265 -0.5143596830118065 0  0.6262446286847614 -0.5735657901943212 0  0.2030558252325225 -0.5625263842513452 0  0.6123273142928579 0.7407533260723429 0  0.4016460890123554 -0.3042863223111857 0  -0.59039693199147 0.7578418819188018 0  0.7276932493917544 -0.3705808024528924 0  0.5222536818742854 -0.4713886230400014 0  -0.5101986527137737 0.8848365765607674 0  0.510560172809238 0.5356013299918891 0  -0.3603569195756083 0.75823710606415 0  0.1967279277813232 0.728226870058472 0  -0.6086880986371127 0.1545624071548516 0  -0.38105366729386 0.1511189987807864 0  -0.2944659463671584 -0.7359061804869591 0  0.5060729154966499 -0.3475227845833823 0  -0.09281616240412746 -0.06197858250969457 0  0.7649739583333334 0.6673177083333334 0  0.7628906249999999 0.890234375 0  -0.2666864184909611 0.2585504071132311 0  0.3635064892129658 0.3878003602709461 0  -0.2339409722222222 0.8901937905844155 0  -0.1718792125974916 -0.8957733325456778 0  0.1001768566329531 0.4023510017391879 0  0.3120260172693757 -0.4540546875576884 0  0.7804062804433681 0.1896628610854537 0  0.4087715451998049 0.187961780041608 0  -0.1584963477271457 0.5451611892421655 0  -0.8926817849258324 0.463022006336401 0  0.2338091473445219 -0.07576267331277289 0  0.08171112182813692 -0.2349087687359925 0  0.04635385178956847 -0.1044635073718474 0  -0.4377391632114205 -0.6448874471423088 0  -0.1907678351227189 0.6480215912813945 0  0.300605946475244 0.4741444604171038 0  -0.2145033720757486 -0.06751709909419711 0  0.6069191921170397 -0.005492331448357812 0  0.0214718770761248 0.6032397936031719 0  0.5476675683364878 0.8992752415326501 0  0.4387475014316537 0.9093708953002239 0  -0.4932997685306436 -0.4381009159993523 0  0.2515197695339056 -0.1791673369138964 0  -0.7291666666666667 -0.6088789682539681 0  -0.9166666666666667 -0.6875 0  0.620579540363709 -0.2122431523583302 0  -0.484950136419973 0.6719440339397442 0  0.2857044415400258 0.0137589173127316 0  -0.8945708364098356 -0.288306105327986 0  0.4043102720140535 0.7842914560451557 0  0.04123256238752064 -0.9026968245801402 0  0.2003676884403109 -0.9091888601740487 0  0.1068775558538842 -0.7373377130403223 0  -0.4804566783514427 -0.1763307203045643 0  0.108286342087769 -0.3993789328997278 0  -0.191883080105361 -0.3640821726430649 0  -0.07025064492006244 0.2984876656890053 0  -0.7039324641409584 0.788312126296613 0  -0.7311286585775438 0.8932502354831682 0  0.5171409396884947 0.1503852691889257 0  0.4229392823658633 -0.003216522184234835 0  -0.5621736087218259 -0.919558629836806 0  -0.626474064879544 -0.7266572613636506 0  0.2446828746617422 0.2867616783302419 0  0.1759429608742923 0.4776611759306416 0  -0.3468240303741654 -0.5260416435617549 0  -0.7465808808425306 0.4069574477998361 0  -0.7819962170660292 0.2802441065650652 0  -0.3742623214119594 -0.8547800509641984 0  0.1014498009713561 0.8506721983266377 0  0.4285217620918213 -0.5230190595570253 0  0.4091738370487775 -0.6256346204225141 0  0.78125 0.46875 0  0.90625 0.53125 0  -0.4791801348852565 0.2553992655702126 0  0.7843318610782772 -0.7086046956885941 0  0.8909728264971901 -0.7355183796514634 0  0.7041908166528879 -0.7830649143180282 0  0.7311821352
[...]
<PointData  Scalars="velocity-2"> 
<DataArray  type="Float64"  Name="velocity-2"  format="ascii">0.0000000000000000e+00  0.0000000000000000e+00  1.0000000000000000e+01  1.0000000000000000e+01  1.0741928502261477e-04  1.0000000000000000e+01  1.0158471498066373e-04  0.0000000000000000e+00  1.2436516380333714e-04  0.0000000000000000e+00  -1.9419607190854792e-12  -2.8414393427795530e-12  0.0000000000000000e+00  1.0000000000000000e+01  6.7914418362832019e-01  1.0000000000000000e+01  6.8281124325193776e-01  2.5501390724802653e-01  1.3520469763289809e-10  9.1443668390739827e-08  6.9123250420609583e-01  -1.9968089109547237e-12  6.8819845392770814e-04  -1.4347064054224505e-14  2.2565796322846214e+00  4.8353167706934741e+00  6.7636574401105060e-16  9.8452081761451693e-08  1.3650637369063794e-03  3.3205212847174255e+00  6.2616680254042356e-16  9.6358657757932897e-02  2.8372315001759720e-16  5.9365177838884058e-02  1.9977445655073418e-04  5.2862182731164279e-08  1.6859528774870522e-01  2.3743570143852538e-07  1.1892141079988964e-02  5.1422628567921054e+00  2.9993987491155464e-06  4.0805063882843058e+00  4.7834401575088970e-17  0.0000000000000000e+00  1.0000000000000000e+01  5.1350702532769965e+00  1.6358831376617352e-16  1.4405766854092678e-13  2.2169795586215341e-01  1.9691756424508162e-02  5.8219879183146727e-08  -1.1147845260700969e-16  5.1343030418395479e+00  0.0000000000000000e+00  0.0000000000000000e+00  1.0000000000000000e+01  6.0005646303847223e-08  1.0000000000000000e+01  0.0000000000000000e+00  2.0288896191603335e-02  1.0000000000000000e+01  2.6275081900139864e-10  5.4635161630474415e-04  1.7977067906200017e-06  2.7486799631268635e-15  -2.9513820393633264e-12  1.1545051271982374e-12  2.5266415562162732e+00  8.2526228848853611e-01  1.1836251840663383e-04  3.1862283870151588e-03  8.6539842053327265e-03  1.5114844670950164e-05  -1.8875609697781433e-18  -3.9199351140688502e-18  -4.4418286601320339e-14  6.9760963337227036e-12  6.8178792017636152e+00  5.9845526837567267e+00  7.5497158502043449e-01  1.9703704580710650e-03  1.3959248118312564e-18  1.6764186654374629e-05  7.4894771064252286e-01  4.1774179020888404e-02  7.7991396867979712e-01  2.2569910623878706e+00  6.9035444267643014e+00  -8.2666068142725457e-13  -5.6430527228104645e-19  -4.8873671419120114e-18  7.9546981238779830e+00  5.7840206651578162e-08  7.1145706193523317e+00  1.5842511230256198e+00  8.1842865145846027e+00  3.8752339799359649e-06  4.9091790346799154e-20  8.2003788510549906e+00  9.8860921569931913e-15  1.5928265435476905e-02  1.9030342739021808e-02  5.1420393423185547e-03  6.8873823026976616e-02  3.3818865566058076e-16  0.0000000000000000e+00  -8.7134802510344005e-14  3.2390511318456672e+00  1.4311323130760636e-01  -1.6003123368188889e-13  0.0000000000000000e+00  -1.8231283504130354e-18  1.0526228752374459e-08  1.6727057302235262e-08  7.0060516508480641e-06  3.3864175735998819e-05  2.6612731986030207e+00  4.6449892308283336e-01  1.0321797646198867e-01  -1.9006690828602442e-14  2.0064974066927449e-09  2.2505892362419218e+00  1.7289727836683540e-06  3.5539063013204748e-04  1.0000000000000000e+01  6.9250358050429155e-10  6.6709202516495361e-10  -4.0156385228360733e-14  1.7198419642919501e-03  8.5798546585957695e-03  3.5481530750834281e-02  5.0234400103066028e-09  9.6878396410693540e-02  5.1144943913589336e-01  1.7328217831922437e-02  1.1438538408126150e-04  -3.9102447281511712e-19  1.8968131684125027e-03  5.5082459942980929e-10  4.9643454761774736e-08  1.3753210642491529e-04  4.3503634574334520e-06  2.8739755011951708e-05  8.3131006543948178e+00  7.8473409311281621e+00  8.3043642713187396e+00  2.3316139285317096e-06  8.4607080760153636e-02  1.1881341168799401e-17  4.8741883541576998e+00  3.8241823201224483e-03  1.5697596380736698e-16  2.1243819926726880e-10  2.6995168676631942e+00  3.8807965834187199e-06  7.0374575337041096e-04  2.0709755440109263e+00  1.2180995756930748e+00  1.4121157659615244e-01  5.6373262904727339e-01  8.4020273835327259e+00  3.0415691462840239e-05  2.0262622537349411e-03  8.1918437916045779e+00  2.0839522024933933e-08  8.5062588664208060e-19  0.0000000000000000e+00  1.0000000000000000e+01  8.3252528701706066e+00  -8.7291018256620479e-19  1.6789560458196587e-16  6.0646513331649259e-16  -3.9947854819955577e-13  9.4734430602973350e-12  5.0988036068625953e-01  9.4578048473946741e-20  0.0000000000000000e+00  3.6853414480957429e+00  8.4161807392438049e-10  5.6526810764524561e-07  -1.4893426184618615e-14  1.0313425211347302e-10  1.4586391526113355e-05  1.3151823318230421e-04  8.3231275917935381e+00  -7.5226735983199145e-11  1.6675216012102052e-14  1.0000000000000000e+01  2.8983661743413678e-06  1.0000000000000000e+01  1.0000000000000000e+01  1.0000000000000000e+01  2.2494517902969444e+00  1.8022497792655112e-03  2.5738115035194555e-16  0.0000000000000000e+00  0.0000000000000000e+00  0.0000000000000000e+00  0.0000000000000000e+00  1.0000000000000000e+01  1.0000000000000000e+01  2.3975738470522536e+00  2.4152439660709812e-05  -6.8341369566705425e-19  8.2529470979865067e+00  1.7794148541309488e-15  -6.5903694847556080e-13  -4.6303163972826350e-16  6.0030596651785763e-18  -5.5549173199400065e-19  4.3312195524737836e-10  2.0164380313467949e+00  1.7802049212894869e-01  5.4267697878106844e+00  1.1501225178408703e-01  -2.2124420212826862e-13  2.2733575622787545e+00  8.9392363268181035e-03  2.0343160562679898e+00  2.0655408344205917e-01  -5.7411470221498390e-14  4.5612929027512479e+00  8.7894001242067488e-01  -1.6192465551961418e-12  7.7232687674151734e-01  1.3314044474348002e-09  8.2740683551858086e-03  -2.1628895537811935e-14  8.3357106666764930e-10  2.4753874822224488e-08  7.3528923796226808e-01  1.0895774546897412e-05  5.5454138735515137e+00  5.4921258681068617e+00  4.6839482949221485e-08  1.2477347320126105e-01  1.0970625717737805e-07  1.2596440941682303e-06  1.2172734861241954e-03  5.7755050295880711e-02  5.9557704738981077e+00  2.2999798190522183e-01  1.7371040433222548e-06  -2.6701732022469617e-19  1.5652111528102773e-02  8.0511205912994191e-04  3.5290085933767232e-04  2.9872325899473995e-11  7.3746667026194752e-07  4.8362030340752718e-02  2.7319250396231503e-07  1.9479468140951381e+00  2.0360864706510108e-04  1.1352612738199963e+00  3.3466892988672825e-01  9.2180834432741947e-13  2.1277258254943487e-02  2.6244861055409142e-16  -2.8397968390129093e-20  2.1739369215031528e+00  7.6920958986204451e-13  3.7286187727060029e-02  -3.4786202117534064e-20  2.1661744846903305e-01  3.2237608264276723e-04  8.4081939553887590e-03  1.3665329242577497e-03  -2.7326332757961853e-12  1.3799860468830009e-03  6.4049829523608355e-07  2.1119838850563067e-05  1.2449717666607758e-16  -2.6712854044222054e-17  8.2810694093506498e-01  2.7397621728036109e-01  -1.4158372126720134e-13  -1.4018392870084287e-14  1.8890635596064697e-02  5.6588572811070159e-03  1.5358862146865382e-09  1.1758288783168584e-16  3.0760357418908122e-17  8.6169922668611813e-10  1.2009845695124450e-03  2.9886105027408300e-01  2.3050018888645682e-01  5.9831159894764001e+00  8.9285254844547186e+00  1.3001331010984973e-12  6.0631709997270846e+00  8.6358847339400544e+00  3.9616811644155465e+00  4.6495249571988442e+00  1.2647099677031456e-19  4.4175420349881435e-22  5.3411704128381903e-18  1.5138922534985960e-07  -1.2432920469437869e-19  7.6262800179621776e-20  -4.1657358159988093e-20  -2.7294788020638051e-20  -8.9097621735605251e-18  8.6706776328221551e+00  2.9467249098731512e-08  -9.0144024396009326e-14  1.5180487905432902e-01  1.8179812609630613e-05  2.0495051061732289e-04  1.2949664865900267e-06  2.8747000008545936e-17  5.8307981793712271e-02  1.8378267960991715e-03  3.3660423526195936e-10  5.2014573627771321e-09  -9.0861407835623311e-20  1.3096339685151166e+00  8.7257835465429157e+00  8.9327095168924551e+00  8.3267104699045635e+00  -8.8242659539772991e-13  -1.2912746058539869e-12  -7.0792307364310558e-14  1.7939608376570493e-02  5.0193270066008067e+00  5.1509421776992908e-09  6.5863058704290753e-02  1.5758013503008414e-02  1.4884121379746792e-06  5.1314328058321601e-01  1.0152671127864690e-06  1.9824552314553000e-15  4.7299729062930087e+00  1.0019229456163625e-08  5.9503324026637818e+00  -2.7359637368522374e-18  8.9436046292108049e+00  1.4753008567475729e-20  -4.7798690122996496e-13  3.1472049676041305e+00  1.8521719584695873e+00  1.6627273781456660e+00  1.9459387614183891e-05  1.1048386308186750e-17  3.8898446822064851e-20  6.5294051593296834e+00  9.3734673853584027e+00  9.4972839117145055e-09  5.8459701932239476e-02  9.2553310988787563e-01  3.3377125275469749e-01  9.3796546759884976e+00  6.8206182820418677e+00  3.6797929439652870e-02  2.0296323793057664e-03  -8.8620079105461341e-12  8.6164963402631840e-17  -2.4212160815125507e-17  3.2558673223635920e-15  9.3800879798955847e+00  -7.4323773394186434e-20  1.3421410686545094e-21  9.3718588486198176e+00  9.3660298973546325e+00  5.1335998394454630e-04  3.0006900926551295e-19  9.3649470492962852e+00  4.1002973842640360e+00  1.5687651121065862e+00  1.5540334380344859e-03  6.9603891952853859e-03  3.5653453342904182e+00  1.6681487435864262e-01  8.7826790097124380e-02  1.3224878139988827e-04  8.5505155743834907e-04  4.1949563561096525e-20  -8.7441225535686522e-17  3.9351921095878493e+00  1.0638958120656466e-07  1.9914685205513927e-06  -8.6753044197831241e-13  1.0922312721745666e-04  6.8503582817444246e-03  -1.8675198605971264e-12  2.4407379008822682e-08  5.2679253321740677e-10  2.1484048185576219e-07  1.5097407963421952e+00  3.4409905466201235e-01  7.0674788189605104e+00  1.3930107130338674e-04  5.4738090882855618e-13  -3.8822392430003553e-18  1.6714642269785185e-08  4.6933958011290171e+00  7.4418923472203895e+00  -7.9114840090234556e-20  4.6666527914296404e-20  1.3479476455073713e+00  3.7739457884908392e+00  3.2015577323060366e-07  3.4824663226150263e+00  4.6890690393418648e-06  2.5532846615007730e-02  1.0998852937195462e+00  2.8752941125436226e-11  -3.6476815763307952e-13  3.8776855194360378e-05  9.4039782369131596e-05  2.4652071526750204e-05  2.8592040092601362e-03  -3.6008143942064138e-13  -5.8321496889744642e-15  -3.6246406092836263e-14  -4.9409279734112373e-15  -5.3173670320323403e-13  2.2089358193662613e-14  1.8434436860210469e-05  1.0846339777108438e-04  7.3915857144146744e-07  7.0124661324675730e-01  2.2630086345631632e-02  1.3550091221841571e-15  -3.7336138992728944e-13  5.0840463247552803e+00  3.6242783346193769e-06  2.4255319170505280e-01  1.0779563432050829e+00  3.2163260311884051e-01  1.4439618415601722e-11  1.1335110654154547e-02  6.7142035560069601e-09  1.6633542725337264e-08  3.8001538580277245e-03  1.6166271259082947e-04  1.7801882592463603e-03  9.5958220951432738e-03  1.5897967854107020e-05  9.1298870524779766e-10  1.2601375884910738e-10  7.0163650744233896e+00  9.4002700178811107e+00  6.2872675272822892e-02  -1.3843365052834025e-19  2.2436018869778757e-06  4.0340072132944338e-01  7.8499971368758919e-09  7.1801932432186417e+00  2.1595064895886660e-11  4.8086969300572470e-02  2.4963251752673683e-07  1.4753593170781122e-11  9.2951267212867190e+00  -1.4773783096380125e-19  3.1037716620451973e-03  2.2538088475521914e+00  8.4000752871332764e+00  1.0609595919278119e-19  6.1529359983509933e+00  4.6657947304743743e-07  5.9907704894600896e-09  7.2193141030035230e-16  2.6967477210400311e-20  2.6316917586565812e-02  -1.5214294573522984e-17  4.3560937851609941e-15  2.8341592591317048e-15  2.8081833314414222e-04  2.8558968343305482e-04  3.5474149739125389e+00  2.9946169331865757e+00  2.0825556642478902e-02  1.0000000000000000e+01  1.1784427264448442e-10  2.0444548298646139e-18  1.1550746986151967e+00  2.1663329940813370e-08  1.0562761753395027e-09  2.2177962894296596e-05  -7.7300867413060436e-15  1.4730869824870380e-15  1.4845647470815517e+00  4.3699693073593977e+00  -4.1849345566784407e-13  -2.5645881020470176e-13  5.6212512791042765e-02  3.1687067323882031e-10  4.3093299203019872e-03  7.9871112064166378e-11  2.8617733544776033e-06  4.3732225063811233e-07  1.8737247617039110e-05  1.0000000000000000e+01  8.0224290951675012e+00  9.6337143254267299e-01  4.4524616181393628e-01  -1.1004742638568136e-18  3.6367722571832570e+00  1.6519057688987659e+00  4.3233877164952202e-02  6.2237987890043092e-05  1.4698752503840139e-15  9.3559194760906728e+00  8.7533512912282027e-07  1.2051299276123517e-07  3.6197517725865698e-16  -1.3895766065959555e-18  3.6719603191930850e-01  2.1292737877828669e+00  5.8686946022436634e-07  2.7245968572698725e-04  4.4026967786094115e-03  5.4017997784820094e-03  1.7218077327816363e-03  3.8680187626533529e-15  1.5889970793030344e+00  0.0000000000000000e+00  5.0627940253671126e-15  7.9085311339182884e-15  7.3797279614705488e-06  6.8714965655694754e-11  6.9535872683559564e-09  7.4604349960015162e+00  2.3598875497265637e-01  4.3166846667414094e-01  1.5334821523129661e-05  1.1059100893151362e-20  3.4429045084048053e+00  4.6311021008513791e-06  7.1414404068097210e-05  7.9455676525498956e-05  1.0000000000000000e+01  2.7666331213584501e+00  1.4092003273784026e+00  3.1166061089094557e+00  1.5251114017375789e-09  9.4122206491941753e+00  7.6042390015758521e+00  9.2720712006012516e+00  0.0000000000000000e+00  9.4088502129049072e+00  5.2506408678660966e-06  5.3337019312175606e-17  1.5374589112197022e-15  6.4845305782694582e-02  6.7366794587221612e-02  1.3665276096215298e-01  1.0668838444061567e-01  9.3172689217812987e+00  6.9054776119491752e+00  5.4144316561248341e-03  9.8675879421948869e-04  -2.0695339618828339e-18  1.6776466830894532e-07  7.1894816578595188e-04  6.9831930785659968e-08  3.0152501186150144e-12  3.0366392471335947e-17  -5.0920169823219314e-16  1.7436329318851797e-17  5.6566787345038424e-09  3.6112904272865225e+00  -2.9404711281849958e-14  2.3436153316962741e-01  0.0000000000000000e+00  -3.4051440298115918e-13  9.3497623284485982e+00  -1.7677428238317305e-20  1.2077573159508304e-01  4.2396616992716681e-04  4.1491870979083807e-10  1.0795680474518711e-02  4.4906285976279179e-04  2.7430703124458535e-05  1.1662471690424608e-04  3.9311842554357124e-01  9.3633644538625127e+00  4.3587907487646613e-18  6.5977537734784857e+00  6.5382155114171382e-04  9.3926661242874161e+00  3.3951247871936907e-03  9.7069228217874434e-02  1.3872218024152023e-04  -1.3036848225051040e-13  1.1878698844410293e-05  1.0000000000000000e+01  7.2618747869894809e-04  2.0407345345127785e-17  4.8837782215754875e-02  2.4681314272862480e-16  4.6517923520440392e-06  6.5584648258401925e+00  6.9370648647849442e-01  3.1448667358379220e-17  2.2965060014116221e-17  4.9674178808955697e-09  -1.9357842743093263e-18  -1.9096546466706134e-13  3.6974489184108901e-14  3.5603117432179733e-14  3.8525827246946329e-11  9.3523337063774011e-12  9.3748071079131972e+00  1.0000000000000000e+01  4.2180005446098550e-16  7.7829860339674269e-04  2.2823593269620850e+00  5.5589119153569622e-01  2.7685401714890079e-01  1.0557614573664393e+00  7.7199785670651595e+00  5.8690117069151892e-07  5.3256910456514648e+00  1.3481959108976226e-07  7.5775148472803620e-07  2.1977487913731344e-02  7.1654812812179118e+00  2.7051246337462436e-03  1.7492939907710376e-09  2.9723099475213783e+00  4.3998998854565824e-06  5.0695766844237556e-03  3.1417481262359028e+00  2.5783184723002925e+00  4.9550510318609653e-04  0.0000000000000000e+00  7.2598411790516835e+00  0.0000000000000000e+00  2.2096088262198101e+00  2.7135990690612953e-05  4.9106682121257792e-11  3.8410670356272640e-11  8.3017045487990066e-11  1.0853521882020610e-01  3.5518156329811763e-06  1.3001273682687029e+00  4.7308151169842788e-17  3.7673968703830786e-07  4.1621130042770060e+00  8.2497187795794791e-01  3.1935587942780431e-16  3.8469518703128345e-06  4.2288637821832899e-06  4.0803657517091634e-04  5.9640603861766168e+00  1.4758786050302934e+00  1.4646852679290573e-01  2.8739308726214552e-02  3.8628520603041916e+00  8.2575238337628036e+00  9.4201388380642754e+00  6.9049721374397777e-01  -7.9021925346543416e-19  1.0395412855021857e-04  1.1801137606344076e-20  1.9317303798578602e-03  9.4220040873154218e+00  1.0000000000000000e+01  1.0000000000000000e+01  6.7997413101326734e+00  4.9537794396639457e-09  3.5433649443307376e+00  0.0000000000000000e+00  2.0853981260723923e-19  4.7293024365649536e-04  0.0000000000000000e+00  1.0000000000000000e+01  -1.8874175490782970e-11  6.8123457592956855e+00  1.0000000000000000e+01  3.2606859291607704e-01  5.6146108622416660e-02  1.0000000000000000e+01  1.0000000000000000e+01  1.0000000000000000e+01  0.0000000000000000e+00  0.0000000000000000e+00  0.0000000000000000e+00  1.7555916230078810e-05  0.0000000000000000e+00  6.1198906888144198e-09  1.2991876398725772e+00  0.0000000000000000e+00  -1.9079582968942191e-17  -5.7658597000230403e-18  0.0000000000000000e+00  -1.5056975988313797e-13  6.4534133695227413e-03  0.0000000000000000e+00  3.2982672679706737e-01  1.0000000000000000e+01  1.0000000000000000e+01  9.4153242304149263e+00  0.0000000000000000e+00  6.4489845116706499e-03  0.0000000000000000e+00  2.5763964801213216e-05  1.0000000000000000e+01  1.0000000000000000e+01  -3.5264582368325204e-13  8.2989542551231821e-01  1.2668318887058006e-20  1.7840859401593186e-02  4.4629434914248258e-03  1.8732350651491079e+00  2.3703878049657273e-07  -2.5219038118882648e-13  -1.5710392722319246e-12  -2.4362806749752860e-14  6.5371794854246623e+00  8.4655908252909483e-16  3.6539762231525541e-21  2.3097914445337719e-16  4.3218477867391920e+00  -6.4101898124073800e-19  -7.6458265877188628e-18  9.9508688439290684e-20  -3.9761706903617006e-19  2.4101179833980343e-19  -1.9259468208357270e-18  -7.4744351097762332e-19  6.6915430974679504e+00  4.8751570709845931e+00  -5.0759232434137550e-13  2.2031958828694432e-03  9.3258143170868308e+00  -1.0733632825847302e-18  3.8603350203555105e-02  1.9718741330248818e-06  4.5070087015714617e-16  3.9018485359310263e-07  6.8095885238184278e-11  2.7827690899977053e-08  9.8923465433350244e-01  7.5033292897516706e+00  -1.6978329299604087e-13  5.7144378698716993e+00  4.2318390348873569e+00  1.0557420290403609e-01  1.2124120273691676e-08  4.6815107228842367e-05  2.0944813600432188e-01  -3.3878094008187387e-12  8.1202163468752076e-04  6.5425447800561507e+00  4.2943072882458733e-11  2.2667660686747210e-02  2.8025154988552319e+00  1.1574784316406963e+00  2.5812307621090440e+00  9.3032550502000291e-20  5.0450244280474402e-13  -8.0106165742874264e-13  -4.8464990017988635e-14  2.3353812181743163e-16  -1.2550055214731459e-15  9.8867178737263118e-07  3.7264148105972585e-04  6.6353433977919674e-05  1.2465650699258723e+00  8.3424845297672405e+00  7.2920047027271719e+00  6.3909216702034954e-01  4.2596722260545772e-01  3.6454836712526736e-07  4.0078496251029521e-04  6.1359432992113179e-17  1.7837384204908481e-16  -9.0964496739812333e-15  1.5528792241000600e-15  -2.0613113884143739e-14  -1.6345753999245583e-14  2.2963284191494556e-15  3.3637032512123875e-02  2.5174810934972952e-02  1.9062419349817770e-07  6.0847308769430026e-03  6.3607434175730537e+00  5.8931382654547734e-09  1.3082807372536028e-10  9.5067787604911018e+00  4.3082707040678043e+00  5.2421369239687570e+00  8.5779583785828759e-04  2.7462853224097760e-18  4.1628619866895186e-02  5.6091176590018862e-05  3.1397554954835245e-09  1.9556705713838421e-01  1.3668400783956900e+00  1.1398628016498142e-16  3.4770080948674864e+00  2.4379881452823877e+00  1.2228046553160028e+00  9.3895201050582546e+00  5.1842225485628868e+00  5.7813275039161978e+00  7.3463194167364003e+00  3.7472365741251346e+00  5.7830832357618955e-10  -1.0250726225901793e-16  3.7829833314633330e-15  9.3906127819896223e+00  1.4736508697327244e-09  7.3466433962408687e-16  4.7222197059226541e-02  2.3036114483533471e-01  7.8263962932218381e-06  5.6372836914294237e-08  3.7307565638739528e-05  -3.8925036663553707e-13  -9.1294318987384273e-13  -7.5999444035417195e-14  3.1343200337389921e-20  5.3095415652538424e-10  2.5393353280102362e+00  1.3507093358164557e+00  2.8448016824215271e-16  7.6581100055420510e+00  1.4874120679145331e+00  3.8181954690488591e+00  4.9484628323112195e-01  2.1872160830672269e-02  3.6261026718027308e-