<?xml version="1.0"?>
<VTKFile type="UnstructuredGrid"  version="0.1"  >
<UnstructuredGrid>
<Piece  NumberOfPoints="2513" NumberOfCells="4852">
<Points>
<DataArray  type="Float64"  NumberOfComponents="3"  format="ascii">-1 1 0  -1 -1 0  1 -1 0  1 1 0  0 -1 0  1 0 0  0 1 0  -1 0 0  0 0 0  -1 -0.5 0  -0.5 -1 0  -0.5 1 0  -1 0.5 0  1 -0.5 0  0.5 -1 0  1 0.5 0  0.5 1 0  0.4166666666666666 -0.4166666666666667 0  -0.4166666666666667 0.4166666666666667 0  -0.25 -0.5 0  0.5 0.25 0  -0.4861111111111112 -0.06944444444444445 0  0.0732758620689655 0.507183908045977 0  -0.625 -0.625 0  0.625 0.625 0  0.7380952380952381 -0.25 0  -0.7099116161616161 0.2105429292929293 0  -0.25 0.7380952380952381 0  0.105392156862745 -0.6348039215686275 0  0.6770833333333334 -0.6770833333333333 0  -0.6770833333333334 0.6770833333333334 0  0.3472222222222222 -0.06944444444444446 0  -0.7264957264957265 -0.3044871794871795 0  0.3141940982507127 0.7297313660835709 0  0.02049587951122483 -0.3227479397556124 0  -0.2690972222222223 0.1475694444444444 0  0.3859500089908372 -0.7274430156831472 0  -0.2228477945123298 -0.1761765495248019 0  0.2182539682539683 0.1884920634920635 0  0.75 0.375 0  -0.145442219440968 -0.7602211097204841 0  0.7088913690476191 0.0427827380952381 0  -0.75 -1 0  -1 -0.75 0  1 0.75 0  0.75 1 0  -0.7439982703698937 -0.04614153195464455 0  -0.4609235096577606 -0.3356498099556895 0  0.4063134471431929 0.4895621842856023 0  0.25 -1 0  -0.25 -1 0  -0.75 1 0  0.75 -1 0  -1 -0.25 0  -1 0.25 0  1 -0.25 0  -0.25 1 0  1 -0.75 0  -1 0.75 0  0.25 1 0  1 0.25 0  -0.4041423272138783 -0.7597141090712928 0  0.06500839607911253 0.7578103030529481 0  -0.1572801182352047 0.3838997021864289 0  -0.6528005242053915 0.4409494757946086 0  -0.4930160984848485 0.1544744318181818 0  -0.4732142857142858 0.7752976190476191 0  0.6398809523809523 -0.4538690476190476 0  0.5166054117396399 -0.2161233620965164 0  -0.002273787244753427 0.2232363985975174 0  0.1500564496765022 -0.1524955293952667 0  0.2016720420046758 -0.4410343282803009 0  -0.08495178036419618 0.6274139771124571 0  -0.8367311471133162 0.3642591720794645 0  -0.8333333333333334 -0.625 0  -0.594323836800685 -0.8231079456002283 0  -0.4466957714776065 -0.5349126855671806 0  0.8125 0.5625 0  0.78125 0.78125 0  0.5091392650016769 0.7947130883338923 0  0.125 -0.8382681931833136 0  -0.8184523809523809 -0.8184523809523809 0  -0.07781530426104531 -0.5819319697006881 0  0.5085055196703295 0.04967610411902112 0  0.2918471072074933 -0.276017202318847 0  0.5120763537765269 -0.5898771553229597 0  0.625 -0.8585349462365591 0  0.8158532234335381 -0.8158532234335381 0  -0.5198088446315396 0.5739411553684605 0  -0.8585349462365591 0.625 0  -0.8150493805516597 0.8156205699829586 0  0.8585349462365591 -0.625 0  -0.2688268348649726 0.5439331383603209 0  0.8242100426758139 -0.4436043596336612 0  0.5833756314287952 0.4479378157143976 0  0.8690476190476191 -0.125 0  -0.125 0.8690476190476191 0  -0.8692745600729823 0.125 0  0.8696725120759167 0.125 0  -0.625 0.8711516477451908 0  0.2339522463269718 0.3879558377955778 0  0.2453709502295031 0.5655822922838026 0  0.1730610651637797 0.02021709580868947 0  0.3245402594056757 -0.5644672020485209 0  -0.7291666666666666 -0.4816595441595442 0  -1 -0.375 0  -0.5811140848639904 -0.2127276307675001 0  0.673332592838314 0.2158348143233718 0  0.375 1 0  -0.5714768890989919 0.2985103444040069 0  -1 -0.125 0  -0.8453692574786325 -0.1875 0  -0.3144549134065865 -0.02408675326008025 0  -0.2898414972096258 -0.3336092734780093 0  -0.1075052092206287 -0.4224330421314983 0  -0.05043970703604117 -0.1652278959397459 0  0.6459672950297897 -0.1113415301525317 0  0.4645210271029513 0.6398480556579343 0  0.3512863754411909 0.0937979496253573 0  -0.6063160985568274 0.03891469652249891 0  -0.3428819444444445 0.8690476190476191 0  0.625 1 0  -0.1602164796159982 0.02697860906625157 0  0.04648110064133829 -0.4808416424239687 0  1 0.875 0  -0.3836102479201657 0.6484936449177356 0  -0.3776011723096096 0.263078478984336 0  -0.6024978259969829 -0.3949628096211138 0  0.125 1 0  0.2010781308272777 0.8456221018461906 0  0.2822509696388829 -0.845902544691141 0  -0.3285533674953515 -0.6289773550938936 0  0.3461306793221754 0.278777492464833 0  0.4737475672408696 -0.8508448959534423 0  0.2384632828836344 -0.7029523187242811 0  -0.004777287059791593 0.3759269695907358 0  -0.8499735021850066 -0.3912320205328522 0  0.1222536293721587 0.2963971539625205 0  -0.3769456520999688 -0.203572526805711 0  -0.2749617205755651 -0.8464290792698902 0  0.004805888512766143 -0.747174355248311 0  -0.125 -1 0  -0.06001061822252458 -0.8724007765244854 0  0.875 0.4375 0  0.854421179608893 0.271342359217786 0  0.875 1 0  -0.1499861095763589 0.2358309656934888 0  0.3381943639137225 0.8663061796405532 0  -0.7853090110442228 0.4998412775277108 0  0.7398165998560814 -0.5535192694951373 0  0.1580042122341573 -0.3100246140259917 0  -0.7291666666666667 -0.7142857142857142 0  -0.375 -1 0  0.6483368386154684 0.8514905990110488 0  -0.1295370103291928 -0.2826118305021242 0  0.07458201853700455 0.1123894386563915 0  0.6146465857036327 -0.3161203659316075 0  0.5551898493894731 -0.740296118159085 0  0.375 -1 0  0.482702798370208 -0.084133350091034 0  0.87890625 0.68359375 0  -0.05917195534525846 0.4971092425697621 0  0.1260710309213975 0.6343750312956699 0  0.8690476190476191 -0.3077066815262848 0  -0.2912010232560567 0.3668168386732139 0  -0.875 1 0  -1 0.875 0  1 -0.875 0  0.875 -1 0  -0.8689564281364567 -0.006189266075306407 0  -0.7449425635110547 0.08458938160051771 0  -0.7150266761936593 -0.1739444581417552 0  -0.5260034831318311 -0.711099823962112 0  -0.4724626808827322 -0.871722230709409 0  0.4734436795977052 0.377714794132168 0  -0.875 -1 0  -1 -0.875 0  0.6927189078571988 0.5156567235715964 0  -0.3742497615796874 -0.4296005251260107 0  -0.1969436423297711 -0.6387157229772615 0  -0.6179496409766825 -0.08933356056510935 0  -0.424405057115988 0.04452428810878029 0  -0.08479048335844169 0.1279607007132633 0  0.003830300099055113 0.8712085230656206 0  0.8748778838820267 -1.379218479898026e-05 0  -0.375 1 0  -0.625 1 0  1 0.125 0  -0.125 1 0  1 -0.375 0  1 -0.125 0  1 -0.625 0  0.625 -1 0  0.125 -1 0  -0.625 -1 0  -1 -0.625 0  -1 0.125 0  -1 0.375 0  -1 0.625 0  1 0.375 0  1 0.625 0  0.6325660748712082 0.3335187599557389 0  -0.06420945895056573 0.7549874027425891 0  -0.8769015540914771 0.2478802253893416 0  0.871875 0.871875 0  -0.6868091492840067 0.3270978624973681 0  -0.5363597469565949 0.412994850055505 0  -0.6803734992638302 0.5574295000651103 0  -0.7076253581162534 -0.8803439094224437 0  -0.8778089002295137 -0.5106896447504627 0  -0.3860184984222981 0.530566778071246 0  0.6109900617121508 0.1128453077697081 0  0.3896945134930274 -0.1915382873255086 0  0.7605656944697778 -0.06822134873122943 0  0.3576151269893478 0.5948388411612135 0  -0.5689902680792265 -0.5143596830118065 0  0.6262446286847614 -0.5735657901943212 0  0.2030558252325225 -0.5625263842513452 0  0.6123273142928579 0.7407533260723429 0  0.4016460890123554 -0.3042863223111857 0  -0.59039693199147 0.7578418819188018 0  0.7276932493917544 -0.3705808024528924 0  0.5222536818742854 -0.4713886230400014 0  -0.5101986527137737 0.8848365765607674 0  0.510560172809238 0.5356013299918891 0  -0.3603569195756083 0.75823710606415 0  0.1967279277813232 0.728226870058472 0  -0.6086880986371127 0.1545624071548516 0  -0.38105366729386 0.1511189987807864 0  -0.2944659463671584 -0.7359061804869591 0  0.5060729154966499 -0.3475227845833823 0  -0.09281616240412746 -0.06197858250969457 0  0.7649739583333334 0.6673177083333334 0  0.7628906249999999 0.890234375 0  -0.2666864184909611 0.2585504071132311 0  0.3635064892129658 0.3878003602709461 0  -0.2339409722222222 0.8901937905844155 0  -0.1718792125974916 -0.8957733325456778 0  0.1001768566329531 0.4023510017391879 0  0.3120260172693757 -0.4540546875576884 0  0.7804062804433681 0.1896628610854537 0  0.4087715451998049 0.187961780041608 0  -0.1584963477271457 0.5451611892421655 0  -0.8926817849258324 0.463022006336401 0  0.2338091473445219 -0.07576267331277289 0  0.08171112182813692 -0.2349087687359925 0  0.04635385178956847 -0.1044635073718474 0  -0.4377391632114205 -0.6448874471423088 0  -0.1907678351227189 0.6480215912813945 0  0.300605946475244 0.4741444604171038 0  -0.2145033720757486 -0.06751709909419711 0  0.6069191921170397 -0.005492331448357812 0  0.0214718770761248 0.6032397936031719 0  0.5476675683364878 0.8992752415326501 0  0.4387475014316537 0.9093708953002239 0  -0.4932997685306436 -0.4381009159993523 0  0.2515197695339056 -0.1791673369138964 0  -0.7291666666666667 -0.6088789682539681 0  -0.9166666666666667 -0.6875 0  0.620579540363709 -0.2122431523583302 0  -0.484950136419973 0.6719440339397442 0  0.2857044415400258 0.0137589173127316 0  -0.8945708364098356 -0.288306105327986 0  0.4043102720140535 0.7842914560451557 0  0.04123256238752064 -0.9026968245801402 0  0.2003676884403109 -0.9091888601740487 0  0.1068775558538842 -0.7373377130403223 0  -0.4804566783514427 -0.1763307203045643 0  0.108286342087769 -0.3993789328997278 0  -0.191883080105361 -0.3640821726430649 0  -0.07025064492006244 0.2984876656890053 0  -0.7039324641409584 0.788312126296613 0  -0.7311286585775438 0.8932502354831682 0  0.5171409396884947 0.1503852691889257 0  0.4229392823658633 -0.003216522184234835 0  -0.5621736087218259 -0.919558629836806 0  -0.626474064879544 -0.7266572613636506 0  0.2446828746617422 0.2867616783302419 0  0.1759429608742923 0.4776611759306416 0  -0.3468240303741654 -0.5260416435617549 0  -0.7465808808425306 0.4069574477998361 0  -0.7819962170660292 0.2802441065650652 0  -0.3742623214119594 -0.8547800509641984 0  0.1014498009713561 0.8506721983266377 0  0.4285217620918213 -0.5230190595570253 0  0.4091738370487775 -0.6256346204225141 0  0.78125 0.46875 0  0.90625 0.53125 0  -0.4791801348852565 0.2553992655702126 0  0.7843318610782772 -0.7086046956885941 0  0.8909728264971901 -0.7355183796514634 0  0.7041908166528879 -0.7830649143180282 0  0.7311821352
[...]
<PointData  Scalars="velocity-2"> 
<DataArray  type="Float64"  Name="velocity-2"  format="ascii">0.0000000000000000e+00  0.0000000000000000e+00  1.0000000000000000e+01  1.0000000000000000e+01  -8.6492693267292106e-11  1.0000000000000000e+01  -1.7156423801027705e-10  0.0000000000000000e+00  3.9153556012587058e-11  0.0000000000000000e+00  3.8815685299558810e-19  -1.6130047821140274e-19  0.0000000000000000e+00  1.0000000000000000e+01  1.3198799409674011e-02  1.0000000000000000e+01  1.2619441994085602e-02  1.1748524012674571e-03  2.1825829351732752e-18  -5.3217328904683515e-15  1.4362351584296728e-02  -3.2102354522058896e-19  8.2455555610966423e-11  7.4884745455775845e-22  2.3107981359164750e-01  1.4158297254297609e+00  -5.5084020638912293e-23  -1.7389167482566105e-16  -2.0171462751554316e-09  5.7223641816982629e-01  -3.8013226898904827e-23  8.6706332436920405e-05  1.6697600063591382e-23  2.4136078070208827e-05  8.7440604940955891e-11  -3.9384220315128278e-16  4.6383209778774141e-04  -1.4424721416561178e-15  -1.7548558344932460e-07  1.6472599080857793e+00  -2.8516464090828732e-14  9.3822075522877690e-01  -2.7327725355909676e-23  0.0000000000000000e+00  1.0000000000000000e+01  1.6359927290118539e+00  -1.7267075195528349e-23  -2.1854267214318507e-18  9.0087295833218926e-04  -9.0047530894856488e-07  -7.3241287722653075e-15  2.6052574631335148e-23  1.6140646286239193e+00  0.0000000000000000e+00  0.0000000000000000e+00  1.0000000000000000e+01  -7.0866851414651727e-15  1.0000000000000000e+01  0.0000000000000000e+00  -1.3237774761555684e-06  1.0000000000000000e+01  -8.2738675574864728e-18  5.5161817745390567e-10  3.3116785321739514e-14  -9.8462540508322625e-22  -3.1128091589099132e-20  -1.8751580167017350e-19  2.9858746193785729e-01  2.1288104297510612e-02  2.0394045053544609e-11  -1.6020848055941553e-08  -1.9911141709854823e-07  -3.8482046566165700e-13  -7.9647073405167054e-25  -1.5773377475251974e-26  7.1787404306511545e-21  -2.6050813828188840e-18  3.3388584151904470e+00  2.4020825409853424e+00  1.7289367198785491e-02  -6.7293394709068709e-09  -1.3222324895784660e-24  -2.7127887558557169e-12  1.6367845013395669e-02  9.8919963937321899e-06  1.8387738042263017e-02  2.3548543783067716e-01  3.4417628032233747e+00  6.7744696454726085e-21  -3.1743322559598023e-26  1.0197922962865138e-24  5.0203153182921376e+00  3.1799293323873817e-17  3.7183845030834575e+00  1.0289353673186385e-01  5.4213851303239311e+00  2.2097219788073878e-13  -1.8725992564373927e-25  5.4499825073479284e+00  -4.4172877870175776e-21  4.5595703017730913e-07  2.7250252331665451e-07  -6.0062083306731828e-08  2.6662761973882865e-05  -2.1628414443413098e-23  0.0000000000000000e+00  5.9520388404678960e-21  5.3969355049847390e-01  2.3208381249354931e-04  5.8167356155409929e-21  0.0000000000000000e+00  -1.8718873272297045e-25  -1.4362672172630068e-17  -2.9484896438532105e-16  -6.4776387283088361e-13  -5.4695435743840814e-12  3.4314509233581497e-01  5.8578539565137195e-03  1.2045836990853202e-04  -1.9480607777217265e-21  7.4804741332706950e-17  2.2100226021508565e-01  4.3710888994790781e-14  4.3372780236442152e-10  1.0000000000000000e+01  5.5260157541873971e-18  3.6327284111132223e-18  -7.0444098262940128e-21  1.5054221004534410e-08  -1.9414083301296759e-07  5.5125550438055817e-06  4.1370089688196044e-17  1.1407270189135527e-04  7.2618997939782144e-03  5.1154245339655271e-07  2.5657533678803836e-11  -1.0468037030948085e-24  -5.4111189854903160e-09  1.7373129455255035e-18  2.3667593923314434e-16  2.5091979270008770e-11  3.6529009616775372e-13  -5.4423340941690787e-13  5.6647532505950799e+00  4.8498692756657906e+00  5.6676454228307191e+00  -1.0073578122136244e-14  4.7323026325613267e-05  -5.9542597586588895e-24  1.4550564672853219e+00  -2.6228286864739053e-08  8.7493094431641027e-24  5.9650943323012046e-17  3.5141604677840149e-01  -3.7951319587275883e-14  5.1625924866954658e-10  1.8661868199971818e-01  5.5197165374267845e-02  2.1121434002692709e-04  8.3487665680495853e-03  5.8336473354693963e+00  -7.7762709865485602e-13  -5.0444468114146976e-09  5.4276331089940868e+00  -5.8904892002861620e-16  -1.6384757194877361e-25  0.0000000000000000e+00  1.0000000000000000e+01  5.6637928844650096e+00  -7.2415856775886391e-26  -7.8491303061730783e-24  1.7795455122265762e-23  9.3702408400937541e-20  8.2961212410331583e-21  6.9081445657048325e-03  7.9712908930336651e-25  0.0000000000000000e+00  7.4354404653757655e-01  -2.8010285621792913e-17  6.5366611496831609e-15  3.4917355053069988e-22  4.6476512067462212e-19  -3.3221320748117392e-13  4.6691139422873335e-11  5.6784821676706496e+00  9.7779303889750615e-17  -6.1398809190002149e-21  1.0000000000000000e+01  2.3889445769125215e-12  1.0000000000000000e+01  1.0000000000000000e+01  1.0000000000000000e+01  2.2573266311733592e-01  5.2902760547899192e-09  5.6106799583797357e-22  0.0000000000000000e+00  0.0000000000000000e+00  0.0000000000000000e+00  0.0000000000000000e+00  1.0000000000000000e+01  1.0000000000000000e+01  2.6940001730291302e-01  -3.1084837243747842e-12  1.6697333663568286e-25  5.5333263815282061e+00  -1.2480083912524307e-22  -1.2596458704363179e-20  4.2561507856425115e-23  1.1839509059919563e-22  7.8334220491956839e-26  4.8671069881479979e-18  1.7792019949127189e-01  4.7105890658743615e-04  1.8797069626111826e+00  1.9095521366872256e-04  -1.9907325075384992e-20  2.3508442814660713e-01  -1.9750780599496186e-07  1.8424267676806977e-01  6.7163487179188884e-04  -4.9712923879174524e-22  1.2153788270548005e+00  2.5747430930840292e-02  -1.2500429527741548e-19  1.8597883171004352e-02  1.3561858318168960e-17  -7.6637203762753257e-08  3.2593327742192873e-21  4.0008436588839656e-18  -1.0866735810931272e-16  1.6459660466920635e-02  -1.3352956804696271e-12  1.9818952005471031e+00  1.9326619085018768e+00  -1.1027293893414327e-15  2.3779852797999133e-04  -1.6772733214040444e-14  2.7901629077389195e-14  -1.5059712299219820e-09  2.0395459534104275e-05  2.3658329706204144e+00  1.0250260592138598e-03  1.5092255739910335e-14  -2.4420948273071364e-26  -1.0053902034929236e-07  2.9047810241628533e-10  3.5834373169493350e-10  -7.6578142442355112e-19  4.8414889828566972e-15  1.9695065952121419e-05  4.3254358822041486e-15  1.6626225476011047e-01  6.3050679894741936e-11  4.7723682238919388e-02  2.3149546064725086e-03  -9.0444874311348941e-20  4.9852058953283731e-07  1.1264507959932043e-23  -2.1164503438767056e-26  2.1002555766507125e-01  1.9475768277818741e-20  5.2308174846929588e-06  3.7565672443237200e-26  8.3264042167089888e-04  1.2290990937021506e-10  -1.2036546141690918e-07  -2.0798168064507682e-09  -1.9269772197079468e-19  2.1399400303354938e-10  8.1576600587897644e-15  -2.2352966621167646e-12  3.3736541492494481e-23  4.0705117060190989e-23  2.2210370713293334e-02  1.3572573515369607e-03  6.1534164362799580e-20  1.6651529473783651e-21  4.4935618570579785e-07  -7.7163815925932266e-09  -1.0908038683713086e-16  4.2470936976616078e-24  -6.5428577256206656e-24  2.7020057261229388e-17  2.7092488900041633e-10  2.0042543528506944e-03  9.8740518818744654e-04  2.4051590657194497e+00  6.9445388764139144e+00  -2.5496865658879333e-20  2.4798636495039799e+00  6.3202180226522229e+00  8.8006006622324195e-01  1.2902381774378604e+00  1.3962196824588206e-26  2.0724582217898485e-26  4.5019812424961183e-25  -1.0227081216059277e-15  -7.4821990487705249e-24  7.2576365546306617e-26  6.7646202692735123e-26  -4.5363496281272456e-25  -3.1474249999877885e-25  6.3875019350219659e+00  -1.7309816690375625e-16  -3.4605948903598601e-22  3.5520316401321280e-04  -9.6815193615302157e-13  1.1048238847053149e-10  3.9234273303806132e-14  5.4113444051176057e-25  2.0780007548233734e-05  -3.1695458069897287e-09  -8.4588285317632343e-19  5.1285801956595761e-17  -2.0240087821775970e-26  6.6276800432047978e-02  6.4925734003277000e+00  6.9612577868201111e+00  5.6817565946506310e+00  -2.5729073530270790e-20  -2.7377039924927609e-19  3.4014618132762759e-21  5.7811099623617323e-08  1.5312703086741468e+00  9.1843049214048189e-17  3.3600947850264819e-05  -1.3491023223124012e-08  3.1874297404838289e-14  7.2040259112466747e-03  1.9077264320963697e-14  -9.2423202071708839e-22  1.3362585379856675e+00  1.5244111120637529e-16  2.3772061338672454e+00  -8.0600798447552514e-25  6.9773470831611251e+00  -2.0475685181701333e-26  -1.9916749487453185e-20  5.1082848576779472e-01  1.4368164488667617e-01  1.1267578317971967e-01  -1.6531469113775948e-11  -1.1591561383808251e-24  1.4848520654754453e-26  2.9868114329578779e+00  8.0543033982393837e+00  -1.9239161963991841e-16  2.5373959251781258e-05  2.8298120622814928e-02  2.5284353615682075e-03  8.0476959443169278e+00  3.3279098619416518e+00  6.2958976584368843e-06  -7.2980464656267116e-10  2.2609828785335055e-19  -3.6453751531222896e-23  -2.2217006622867835e-24  -1.9485562531431995e-22  8.0374146027951134e+00  3.5601410728318718e-26  2.7290833410394103e-28  8.0548872897483648e+00  8.0199558100698614e+00  1.2008689653671398e-09  -7.0492123872099137e-29  8.0290575551159424e+00  9.3794200610997447e-01  9.6479484214112871e-02  -1.0532993848124229e-09  -2.9943638045757835e-08  6.8801985319382708e-01  4.3071574499663602e-04  6.1473585070018447e-05  2.5035347469088055e-11  4.2868586319593400e-10  6.2672019818433569e-27  -7.4537857847309654e-23  8.5185514608020230e-01  1.8238398676179687e-15  5.3396906042749919e-14  -5.2922498691396216e-19  1.0058423282278684e-11  -1.7613156254312039e-07  3.4477299536225778e-20  -5.1697830501979694e-16  -4.0107781937515383e-17  -7.5756132207998484e-15  8.9587230484094435e-02  2.5060979587049454e-03  3.6554040102042382e+00  3.9240278524837805e-11  1.5452012688718112e-19  -7.4230702854673437e-25  -3.8573684964879884e-16  1.3150111896603063e+00  4.1760617559832864e+00  -2.9859235517716834e-26  -7.6494629065155971e-27  6.7960913220336858e-02  7.7594333410951666e-01  -3.0928208000053725e-16  6.4066764328530235e-01  3.7007727882891753e-14  -4.0756096047617494e-07  4.2539938430311341e-02  -1.8901275200349998e-18  -1.2685317585560910e-20  -6.3831385159635047e-12  8.4386823197725787e-12  -1.3957195955731784e-12  -1.7607049295094740e-08  -6.2251583479413651e-22  -1.3512685278935319e-22  -1.3148566332881758e-22  -1.0776488810931006e-21  1.7846276767809840e-20  5.2249318628453215e-20  -1.3671469477597660e-12  2.9381542704186653e-11  1.6317615716824781e-14  1.5334700623578402e-02  6.5546262830264844e-07  -3.1034004116090073e-22  -1.3665165893706714e-20  1.5957563010126805e+00  -6.2664732003323231e-15  1.1875114076515972e-03  4.1210273815899034e-02  2.2196100029281754e-03  -2.4249529680904874e-18  2.6484585316256343e-08  -9.0752057827952819e-16  -3.7696808070975057e-16  -2.5423540705196948e-08  1.8243888886910619e-11  -1.5211776079900332e-09  1.3145603317519070e-09  -4.0866433362215263e-13  -2.6359874593953684e-17  1.1471240072394723e-18  3.6030361388097210e+00  8.1266810119485360e+00  3.7058753656598700e-05  -4.0787319902355715e-26  6.1593138143659859e-14  4.0357069348080053e-03  2.8461445389603644e-17  3.8237050528934642e+00  -6.1745352258486170e-20  1.5588362215625485e-05  -2.2720955138518378e-15  1.5452331128411554e-19  7.8445422104549953e+00  -3.9664464811196853e-26  -1.8429910393186075e-08  2.3411120898396146e-01  5.8067522739018704e+00  4.6478295710410618e-26  2.5787433974432856e+00  1.6947853452729253e-13  -9.1361561552085763e-18  -5.7662004971927259e-22  -4.3025806735494301e-26  4.0834623874381715e-07  -4.0008724673793663e-25  -3.1219838162901225e-22  3.0126530808388210e-22  1.0382664977759180e-10  1.7526225108066917e-10  6.5453612429549157e-01  4.4966652785395528e-01  3.1185050469764011e-07  1.0000000000000000e+01  6.0897193542638534e-19  -2.8917047427826017e-24  5.0392716145471181e-02  -9.7482349239410104e-16  7.8484961007212796e-18  -1.1202955374534366e-12  2.8147510373719045e-21  -1.7008353967548045e-22  8.7818395320504949e-02  1.1128708171146156e+00  2.0285597671668680e-20  -6.1503318440376475e-21  1.6899837391854571e-07  6.3404082226265759e-18  -2.9372520732541675e-08  -3.4174957368488057e-19  -7.3130526382088383e-14  -2.4069869409353984e-17  -8.3320229846164756e-13  1.0000000000000000e+01  5.1480559115864075e+00  3.0385866865815306e-02  5.1904248351173016e-03  -3.9451242156991700e-25  7.1973356916568665e-01  1.1281301952337980e-01  1.0983531482995365e-05  -5.5339716502352742e-12  -2.3117455887400475e-22  7.9900393247944628e+00  2.3813500069554674e-13  -3.2199153448758669e-15  -2.4616911674392558e-23  -3.6521441686624697e-25  3.1041072115369573e-03  2.0457554758586199e-01  3.3455819740476866e-15  2.0944948804954297e-10  -1.5672250234873402e-08  -5.4651961264676080e-08  -1.7652553878897546e-09  -7.6680918235871336e-22  1.0012725642167097e-01  0.0000000000000000e+00  -9.6043843307373757e-22  8.5537326334420736e-21  2.3393699468377245e-13  6.2989288760087336e-19  -4.7132167799315613e-17  4.2387061934801302e+00  1.0578287059791558e-03  4.2407756105553498e-03  -1.4698189016039493e-12  -4.1843141601194435e-27  6.2667210466565604e-01  1.0159271220616883e-13  -1.3504180649546920e-11  7.3723521120686881e-12  1.0000000000000000e+01  3.7582093473305156e-01  7.7828495341932091e-02  4.9465927576019264e-01  6.4361677186614867e-17  8.1429441110311824e+00  4.4448908582274180e+00  7.7617995465856930e+00  0.0000000000000000e+00  8.1273837364123462e+00  1.2165081266711379e-13  5.2970759601196782e-24  1.1306503327442344e-22  3.5843187891420144e-05  2.9890040888452817e-05  2.3713801756308856e-04  1.1548460740737695e-04  7.8986555524712543e+00  3.4376781416174249e+00  -6.3270158240099219e-08  -2.0519305953346512e-10  -1.9641879352041077e-25  -8.4530952751111853e-15  -2.5066976528656934e-10  -3.3726394801318401e-16  -1.6528046592260427e-20  -7.0653060856025283e-24  -1.3669639499742996e-23  1.1892105185733851e-24  -2.8026977723834076e-16  6.9989796125249970e-01  3.8981497497318211e-23  1.0302566106410787e-03  0.0000000000000000e+00  -1.6651446539532550e-21  7.9665495951705605e+00  1.2217832626067985e-26  1.9910920408838507e-04  3.5384404526781918e-10  7.7223791287250969e-17  5.9427276172374454e-09  6.1062886883155106e-10  -4.0108937681194097e-12  1.7173369724748493e-12  3.4984843442723039e-03  8.0380134910689307e+00  -3.2401054009804384e-25  3.0924717237279795e+00  -2.7858015588306778e-10  8.0934632930744872e+00  -1.7646410532259506e-08  1.1367781260893139e-04  3.7180204208558343e-11  1.7295793784842156e-20  -1.0075647543673597e-12  1.0000000000000000e+01  3.3666610054772616e-10  -1.0704151652160066e-24  2.0313133572524596e-05  1.3860894196126491e-23  -8.1003613455430386e-14  3.0118703491734617e+00  1.4576792679882735e-02  -1.3131408367027190e-23  -1.2494586257602113e-23  4.0006103056766664e-17  -2.2425630221073265e-25  3.0548285136042712e-21  2.2206583229622684e-19  5.5708733787166933e-20  9.7965347327780276e-19  -6.2517338069674742e-19  8.0462234958640959e+00  1.0000000000000000e+01  -2.1191056895789165e-23  -2.5414283454973352e-10  2.3381655871515925e-01  8.6584564213900636e-03  1.7621613382690672e-03  4.0712988727810484e-02  4.6406039638755310e+00  4.4666908893803225e-14  1.7830010862496701e+00  -5.7463538923243030e-16  1.1012690993131207e-14  1.5057168447674620e-06  3.8073449647213100e+00  -1.2322783628350164e-08  1.1459765052838601e-17  4.4607113191942577e-01  -4.9945890685330320e-14  -5.5233536949841804e-08  5.1037252113559772e-01  3.2350549395106765e-01  7.8589989947959774e-10  0.0000000000000000e+00  3.9324175649917357e+00  0.0000000000000000e+00  2.2304753807290031e-01  -1.0059260338268418e-12  -2.5682746885216596e-18  -2.9176496949173530e-18  4.5941277457113795e-19  1.4354281442324163e-04  -4.8709707247156342e-14  6.2064281546273879e-02  -2.7202680467972152e-23  1.0361769251915182e-14  9.8700741881912635e-01  2.2512490909006606e-02  5.9691212727410136e-23  -6.6201571194918883e-14  -1.9063289551351743e-13  2.2899031639740931e-10  2.3485368199107151e+00  8.2008251718124800e-02  3.2279798469372559e-04  1.6240215765344811e-06  8.2334460199600501e-01  5.5592201316758318e+00  8.1250796196508439e+00  1.5076867797844508e-02  -1.5597619288727979e-25  -6.6604733004176894e-11  8.2958568464048470e-27  -2.7795718439541252e-09  8.1451545678714936e+00  1.0000000000000000e+01  1.0000000000000000e+01  3.3461000393536566e+00  -6.4861877767990811e-16  6.6805076374654015e-01  0.0000000000000000e+00  1.6834026484919763e-26  1.5700446648134713e-09  0.0000000000000000e+00  1.0000000000000000e+01  -5.2072054350405037e-18  3.3222057481956511e+00  1.0000000000000000e+01  2.0935445335019411e-03  1.1622352083120525e-05  1.0000000000000000e+01  1.0000000000000000e+01  1.0000000000000000e+01  0.0000000000000000e+00  0.0000000000000000e+00  0.0000000000000000e+00  -2.0508951266515568e-11  0.0000000000000000e+00  4.5511259005849112e-16  6.3053651747042860e-02  0.0000000000000000e+00  -1.0896368325068997e-24  -5.6382388654945426e-24  0.0000000000000000e+00  1.2254590840336282e-19  -6.7543349517824930e-08  0.0000000000000000e+00  2.2904986669691164e-03  1.0000000000000000e+01  1.0000000000000000e+01  8.1275104570287553e+00  0.0000000000000000e+00  -1.7163447750494871e-07  0.0000000000000000e+00  -9.0902881321956589e-12  1.0000000000000000e+01  1.0000000000000000e+01  3.5430034383782749e-21  2.1288625193380661e-02  3.3527711585989917e-26  1.0241494149013125e-06  -5.5550354022457416e-08  1.5106804963997633e-01  3.2367579685275420e-16  -4.1934268858393587e-21  -1.4480769904437920e-19  -1.7866199125960954e-21  2.9803602521442638e+00  2.3819339753317204e-22  -2.7642371612819738e-27  1.9187244542676897e-23  1.0889304159905642e+00  8.6748257221803750e-26  1.4903085700026861e-24  -1.6734868087486667e-26  -5.4219649728447702e-26  2.3339091138364375e-25  -3.1290453106426811e-25  1.7714123073887183e-25  3.1901019222603781e+00  1.4427724912503421e+00  -6.0623468187641532e-20  -5.6318871755537896e-09  7.9044627848413267e+00  -6.4136845540310198e-25  6.3405251536316881e-06  5.2176951102481240e-14  3.4308628881457013e-23  2.2501189649912024e-15  6.2082147918461724e-19  -6.9839982394792234e-16  3.3529735723475763e-02  4.2675427564246675e+00  -3.4325308306396444e-21  2.1298754191842373e+00  1.0177497324128708e+00  1.2960848046502426e-04  -4.3501327015454721e-16  1.5185812147939617e-12  6.7864121238219355e-04  -4.7807912587504133e-19  -1.4103950815799477e-10  2.9890618768674493e+00  2.4637741375841041e-18  6.0225701542195208e-07  3.8374618370390540e-01  4.8052822559685827e-02  3.2236943027863263e-01  -1.2936489502339556e-26  2.1551147073580016e-20  1.1755574801051051e-20  1.0528894382573123e-20  1.6580519491185191e-23  4.4307144920609937e-22  4.2843210186835855e-14  2.9728639918221151e-10  -3.2090579779883755e-12  5.7232244524463731e-02  5.6789139889075635e+00  3.9731016428943660e+00  1.2254193515667828e-02  4.2737594853288242e-03  7.9490023734460363e-15  5.3929880053832575e-10  -7.7299092538380912e-24  1.4974299572126296e-23  4.8281123837078109e-22  6.4107940345750155e-22  -1.6788617973949920e-21  -9.4426726451262083e-22  -2.1759043540188881e-22  2.3720824161449895e-06  -8.9445348958095732e-08  -4.3317123867302031e-16  -3.9947640832340803e-08  2.7910144734226403e+00  -3.5873118611758336e-17  1.1367879735585217e-18  8.3672619170030842e+00  1.0708750082996683e+00  1.7134365023822986e+00  1.5937539464566941e-09  -1.6455909183684744e-24  5.2247777404013205e-06  -2.8954558531504340e-12  1.1480331453387588e-16  5.4681477560479400e-04  7.0852391480096241e-02  4.3140820554103049e-22  6.3096326367496536e-01  2.7740646729847390e-01  5.6894507502609069e-02  8.0721548560082788e+00  1.6854170857778772e+00  2.1735812029960488e+00  4.0492803501842287e+00  7.6815439251663231e-01  1.1693519166871884e-17  7.8022233640051565e-24  -5.6584905723728125e-22  8.1091946251796116e+00  4.5492375989048342e-17  3.0156777722514924e-22  1.6605380607385599e-05  1.1186445523492998e-03  8.7334977862723945e-14  -5.4554379292918835e-16  -4.4930372042863772e-12  -1.5869892203583971e-20  3.0454213150366913e-20  3.0469191367029937e-20  3.4977933858237299e-26  5.5610258863179467e-19  3.0669689775959014e-01  6.8364559043851358e-02  4.208808967