<?xml version="1.0"?>
<VTKFile type="UnstructuredGrid"  version="0.1"  >
<UnstructuredGrid>
<Piece  NumberOfPoints="2513" NumberOfCells="4852">
<Points>
<DataArray  type="Float64"  NumberOfComponents="3"  format="ascii">-1 1 0  -1 -1 0  1 -1 0  1 1 0  0 -1 0  1 0 0  0 1 0  -1 0 0  0 0 0  -1 -0.5 0  -0.5 -1 0  -0.5 1 0  -1 0.5 0  1 -0.5 0  0.5 -1 0  1 0.5 0  0.5 1 0  0.4166666666666666 -0.4166666666666667 0  -0.4166666666666667 0.4166666666666667 0  -0.25 -0.5 0  0.5 0.25 0  -0.4861111111111112 -0.06944444444444445 0  0.0732758620689655 0.507183908045977 0  -0.625 -0.625 0  0.625 0.625 0  0.7380952380952381 -0.25 0  -0.7099116161616161 0.2105429292929293 0  -0.25 0.7380952380952381 0  0.105392156862745 -0.6348039215686275 0  0.6770833333333334 -0.6770833333333333 0  -0.6770833333333334 0.6770833333333334 0  0.3472222222222222 -0.06944444444444446 0  -0.7264957264957265 -0.3044871794871795 0  0.3141940982507127 0.7297313660835709 0  0.02049587951122483 -0.3227479397556124 0  -0.2690972222222223 0.1475694444444444 0  0.3859500089908372 -0.7274430156831472 0  -0.2228477945123298 -0.1761765495248019 0  0.2182539682539683 0.1884920634920635 0  0.75 0.375 0  -0.145442219440968 -0.7602211097204841 0  0.7088913690476191 0.0427827380952381 0  -0.75 -1 0  -1 -0.75 0  1 0.75 0  0.75 1 0  -0.7439982703698937 -0.04614153195464455 0  -0.4609235096577606 -0.3356498099556895 0  0.4063134471431929 0.4895621842856023 0  0.25 -1 0  -0.25 -1 0  -0.75 1 0  0.75 -1 0  -1 -0.25 0  -1 0.25 0  1 -0.25 0  -0.25 1 0  1 -0.75 0  -1 0.75 0  0.25 1 0  1 0.25 0  -0.4041423272138783 -0.7597141090712928 0  0.06500839607911253 0.7578103030529481 0  -0.1572801182352047 0.3838997021864289 0  -0.6528005242053915 0.4409494757946086 0  -0.4930160984848485 0.1544744318181818 0  -0.4732142857142858 0.7752976190476191 0  0.6398809523809523 -0.4538690476190476 0  0.5166054117396399 -0.2161233620965164 0  -0.002273787244753427 0.2232363985975174 0  0.1500564496765022 -0.1524955293952667 0  0.2016720420046758 -0.4410343282803009 0  -0.08495178036419618 0.6274139771124571 0  -0.8367311471133162 0.3642591720794645 0  -0.8333333333333334 -0.625 0  -0.594323836800685 -0.8231079456002283 0  -0.4466957714776065 -0.5349126855671806 0  0.8125 0.5625 0  0.78125 0.78125 0  0.5091392650016769 0.7947130883338923 0  0.125 -0.8382681931833136 0  -0.8184523809523809 -0.8184523809523809 0  -0.07781530426104531 -0.5819319697006881 0  0.5085055196703295 0.04967610411902112 0  0.2918471072074933 -0.276017202318847 0  0.5120763537765269 -0.5898771553229597 0  0.625 -0.8585349462365591 0  0.8158532234335381 -0.8158532234335381 0  -0.5198088446315396 0.5739411553684605 0  -0.8585349462365591 0.625 0  -0.8150493805516597 0.8156205699829586 0  0.8585349462365591 -0.625 0  -0.2688268348649726 0.5439331383603209 0  0.8242100426758139 -0.4436043596336612 0  0.5833756314287952 0.4479378157143976 0  0.8690476190476191 -0.125 0  -0.125 0.8690476190476191 0  -0.8692745600729823 0.125 0  0.8696725120759167 0.125 0  -0.625 0.8711516477451908 0  0.2339522463269718 0.3879558377955778 0  0.2453709502295031 0.5655822922838026 0  0.1730610651637797 0.02021709580868947 0  0.3245402594056757 -0.5644672020485209 0  -0.7291666666666666 -0.4816595441595442 0  -1 -0.375 0  -0.5811140848639904 -0.2127276307675001 0  0.673332592838314 0.2158348143233718 0  0.375 1 0  -0.5714768890989919 0.2985103444040069 0  -1 -0.125 0  -0.8453692574786325 -0.1875 0  -0.3144549134065865 -0.02408675326008025 0  -0.2898414972096258 -0.3336092734780093 0  -0.1075052092206287 -0.4224330421314983 0  -0.05043970703604117 -0.1652278959397459 0  0.6459672950297897 -0.1113415301525317 0  0.4645210271029513 0.6398480556579343 0  0.3512863754411909 0.0937979496253573 0  -0.6063160985568274 0.03891469652249891 0  -0.3428819444444445 0.8690476190476191 0  0.625 1 0  -0.1602164796159982 0.02697860906625157 0  0.04648110064133829 -0.4808416424239687 0  1 0.875 0  -0.3836102479201657 0.6484936449177356 0  -0.3776011723096096 0.263078478984336 0  -0.6024978259969829 -0.3949628096211138 0  0.125 1 0  0.2010781308272777 0.8456221018461906 0  0.2822509696388829 -0.845902544691141 0  -0.3285533674953515 -0.6289773550938936 0  0.3461306793221754 0.278777492464833 0  0.4737475672408696 -0.8508448959534423 0  0.2384632828836344 -0.7029523187242811 0  -0.004777287059791593 0.3759269695907358 0  -0.8499735021850066 -0.3912320205328522 0  0.1222536293721587 0.2963971539625205 0  -0.3769456520999688 -0.203572526805711 0  -0.2749617205755651 -0.8464290792698902 0  0.004805888512766143 -0.747174355248311 0  -0.125 -1 0  -0.06001061822252458 -0.8724007765244854 0  0.875 0.4375 0  0.854421179608893 0.271342359217786 0  0.875 1 0  -0.1499861095763589 0.2358309656934888 0  0.3381943639137225 0.8663061796405532 0  -0.7853090110442228 0.4998412775277108 0  0.7398165998560814 -0.5535192694951373 0  0.1580042122341573 -0.3100246140259917 0  -0.7291666666666667 -0.7142857142857142 0  -0.375 -1 0  0.6483368386154684 0.8514905990110488 0  -0.1295370103291928 -0.2826118305021242 0  0.07458201853700455 0.1123894386563915 0  0.6146465857036327 -0.3161203659316075 0  0.5551898493894731 -0.740296118159085 0  0.375 -1 0  0.482702798370208 -0.084133350091034 0  0.87890625 0.68359375 0  -0.05917195534525846 0.4971092425697621 0  0.1260710309213975 0.6343750312956699 0  0.8690476190476191 -0.3077066815262848 0  -0.2912010232560567 0.3668168386732139 0  -0.875 1 0  -1 0.875 0  1 -0.875 0  0.875 -1 0  -0.8689564281364567 -0.006189266075306407 0  -0.7449425635110547 0.08458938160051771 0  -0.7150266761936593 -0.1739444581417552 0  -0.5260034831318311 -0.711099823962112 0  -0.4724626808827322 -0.871722230709409 0  0.4734436795977052 0.377714794132168 0  -0.875 -1 0  -1 -0.875 0  0.6927189078571988 0.5156567235715964 0  -0.3742497615796874 -0.4296005251260107 0  -0.1969436423297711 -0.6387157229772615 0  -0.6179496409766825 -0.08933356056510935 0  -0.424405057115988 0.04452428810878029 0  -0.08479048335844169 0.1279607007132633 0  0.003830300099055113 0.8712085230656206 0  0.8748778838820267 -1.379218479898026e-05 0  -0.375 1 0  -0.625 1 0  1 0.125 0  -0.125 1 0  1 -0.375 0  1 -0.125 0  1 -0.625 0  0.625 -1 0  0.125 -1 0  -0.625 -1 0  -1 -0.625 0  -1 0.125 0  -1 0.375 0  -1 0.625 0  1 0.375 0  1 0.625 0  0.6325660748712082 0.3335187599557389 0  -0.06420945895056573 0.7549874027425891 0  -0.8769015540914771 0.2478802253893416 0  0.871875 0.871875 0  -0.6868091492840067 0.3270978624973681 0  -0.5363597469565949 0.412994850055505 0  -0.6803734992638302 0.5574295000651103 0  -0.7076253581162534 -0.8803439094224437 0  -0.8778089002295137 -0.5106896447504627 0  -0.3860184984222981 0.530566778071246 0  0.6109900617121508 0.1128453077697081 0  0.3896945134930274 -0.1915382873255086 0  0.7605656944697778 -0.06822134873122943 0  0.3576151269893478 0.5948388411612135 0  -0.5689902680792265 -0.5143596830118065 0  0.6262446286847614 -0.5735657901943212 0  0.2030558252325225 -0.5625263842513452 0  0.6123273142928579 0.7407533260723429 0  0.4016460890123554 -0.3042863223111857 0  -0.59039693199147 0.7578418819188018 0  0.7276932493917544 -0.3705808024528924 0  0.5222536818742854 -0.4713886230400014 0  -0.5101986527137737 0.8848365765607674 0  0.510560172809238 0.5356013299918891 0  -0.3603569195756083 0.75823710606415 0  0.1967279277813232 0.728226870058472 0  -0.6086880986371127 0.1545624071548516 0  -0.38105366729386 0.1511189987807864 0  -0.2944659463671584 -0.7359061804869591 0  0.5060729154966499 -0.3475227845833823 0  -0.09281616240412746 -0.06197858250969457 0  0.7649739583333334 0.6673177083333334 0  0.7628906249999999 0.890234375 0  -0.2666864184909611 0.2585504071132311 0  0.3635064892129658 0.3878003602709461 0  -0.2339409722222222 0.8901937905844155 0  -0.1718792125974916 -0.8957733325456778 0  0.1001768566329531 0.4023510017391879 0  0.3120260172693757 -0.4540546875576884 0  0.7804062804433681 0.1896628610854537 0  0.4087715451998049 0.187961780041608 0  -0.1584963477271457 0.5451611892421655 0  -0.8926817849258324 0.463022006336401 0  0.2338091473445219 -0.07576267331277289 0  0.08171112182813692 -0.2349087687359925 0  0.04635385178956847 -0.1044635073718474 0  -0.4377391632114205 -0.6448874471423088 0  -0.1907678351227189 0.6480215912813945 0  0.300605946475244 0.4741444604171038 0  -0.2145033720757486 -0.06751709909419711 0  0.6069191921170397 -0.005492331448357812 0  0.0214718770761248 0.6032397936031719 0  0.5476675683364878 0.8992752415326501 0  0.4387475014316537 0.9093708953002239 0  -0.4932997685306436 -0.4381009159993523 0  0.2515197695339056 -0.1791673369138964 0  -0.7291666666666667 -0.6088789682539681 0  -0.9166666666666667 -0.6875 0  0.620579540363709 -0.2122431523583302 0  -0.484950136419973 0.6719440339397442 0  0.2857044415400258 0.0137589173127316 0  -0.8945708364098356 -0.288306105327986 0  0.4043102720140535 0.7842914560451557 0  0.04123256238752064 -0.9026968245801402 0  0.2003676884403109 -0.9091888601740487 0  0.1068775558538842 -0.7373377130403223 0  -0.4804566783514427 -0.1763307203045643 0  0.108286342087769 -0.3993789328997278 0  -0.191883080105361 -0.3640821726430649 0  -0.07025064492006244 0.2984876656890053 0  -0.7039324641409584 0.788312126296613 0  -0.7311286585775438 0.8932502354831682 0  0.5171409396884947 0.1503852691889257 0  0.4229392823658633 -0.003216522184234835 0  -0.5621736087218259 -0.919558629836806 0  -0.626474064879544 -0.7266572613636506 0  0.2446828746617422 0.2867616783302419 0  0.1759429608742923 0.4776611759306416 0  -0.3468240303741654 -0.5260416435617549 0  -0.7465808808425306 0.4069574477998361 0  -0.7819962170660292 0.2802441065650652 0  -0.3742623214119594 -0.8547800509641984 0  0.1014498009713561 0.8506721983266377 0  0.4285217620918213 -0.5230190595570253 0  0.4091738370487775 -0.6256346204225141 0  0.78125 0.46875 0  0.90625 0.53125 0  -0.4791801348852565 0.2553992655702126 0  0.7843318610782772 -0.7086046956885941 0  0.8909728264971901 -0.7355183796514634 0  0.7041908166528879 -0.7830649143180282 0  0.7311821352
[...]
<PointData  Scalars="velocity-2"> 
<DataArray  type="Float64"  Name="velocity-2"  format="ascii">0.0000000000000000e+00  0.0000000000000000e+00  1.0000000000000000e+01  1.0000000000000000e+01  3.7393038967386438e+00  1.0000000000000000e+01  3.7388856713365506e+00  0.0000000000000000e+00  3.7393272781381177e+00  0.0000000000000000e+00  1.7193001160158432e+00  1.7194119921524982e+00  0.0000000000000000e+00  1.0000000000000000e+01  6.4813166044662989e+00  1.0000000000000000e+01  6.4815091711279083e+00  5.9621916883542010e+00  2.0248595167620365e+00  2.6662554154476767e+00  6.4821383288775944e+00  1.7698227284163961e+00  4.0868438802539995e+00  1.2760125854859417e+00  7.3064792886696663e+00  8.0919595688527597e+00  9.8177839031318681e-01  2.6662312387055289e+00  4.2446172401985764e+00  7.6638792319735609e+00  1.0950108549300821e+00  5.5479113928095032e+00  9.2491173872800547e-01  5.3574807653973355e+00  3.8348738512592475e+00  2.5902350392607989e+00  5.7766501454504136e+00  2.7756314784584424e+00  4.8266172616707994e+00  8.1763011306828179e+00  3.0962950946445158e+00  7.8858690064232269e+00  8.4438135229121025e-01  0.0000000000000000e+00  1.0000000000000000e+01  8.1761646959430916e+00  8.6490845666738625e-01  1.8616302471665316e+00  5.8989413247447322e+00  4.9979418996047915e+00  2.6660081565569795e+00  8.4448037789816810e-01  8.1758214885625087e+00  0.0000000000000000e+00  0.0000000000000000e+00  1.0000000000000000e+01  2.6664782518221060e+00  1.0000000000000000e+01  0.0000000000000000e+00  4.9983236423915622e+00  1.0000000000000000e+01  2.0714602149100187e+00  4.0467910009282910e+00  3.0460689081198593e+00  1.1790464557696620e+00  1.7446903195012724e+00  1.8166757198332255e+00  7.4073550283251430e+00  6.5887899097296332e+00  3.7289851209357532e+00  4.4691640881924188e+00  4.7378600587630801e+00  3.3566147093781433e+00  5.4969720352487572e-01  5.6120403270584274e-01  1.3835770682100741e+00  1.9138179808260829e+00  8.6246959817089230e+00  8.3996622660156266e+00  6.5402055666165566e+00  4.3427002836324435e+00  6.1158859801006915e-01  3.3883027796941421e+00  6.5361985458285128e+00  5.2309470274434418e+00  6.5593496032596592e+00  7.3064471384551277e+00  8.6488265939422533e+00  1.6482174144886137e+00  4.7600381561545652e-01  6.2310436003955361e-01  8.9591153210191692e+00  2.5914166926526994e+00  8.7092181613568176e+00  7.0264013284333098e+00  9.0358591897008704e+00  3.1829016906208092e+00  4.3972866505210684e-01  9.0403406012989009e+00  1.2759026430376661e+00  4.9110644325435864e+00  4.9728242930112385e+00  4.5878610420902639e+00  5.4168223937059574e+00  9.1571982342579372e-01  0.0000000000000000e+00  1.4301307185159013e+00  7.6379746570300400e+00  5.7105649284057094e+00  1.4640301028118092e+00  0.0000000000000000e+00  5.2050981202573243e-01  2.4124639501546943e+00  2.5086120222276902e+00  3.2585202804211173e+00  3.5098089334155791e+00  7.4494092550892717e+00  6.2579916932842581e+00  5.5716115082787008e+00  1.3412646658278500e+00  2.3030315493366373e+00  7.3061405994263282e+00  3.0340144803261246e+00  3.9576417947924774e+00  1.0000000000000000e+01  2.1483939236609095e+00  2.1711427916909996e+00  1.3547527773739683e+00  4.3419407585350154e+00  4.7352893399230842e+00  5.1766897717395430e+00  2.3581478381897818e+00  5.5421280152488688e+00  6.3154977427230463e+00  4.9357158243008552e+00  3.7173801950140026e+00  5.0492184962863573e-01  4.3288651053246516e+00  2.1734682870341646e+00  2.5671281068854404e+00  3.7615494365525421e+00  3.1830125708843156e+00  3.4668140268755159e+00  9.0793994816709667e+00  8.9290759073687216e+00  9.0794542501441029e+00  3.0768594365816981e+00  5.4955969628397279e+00  7.2414928288211478e-01  8.1041295057140381e+00  4.5103234162150247e+00  9.1576800656252155e-01  2.1807988422202622e+00  7.4655650959255970e+00  3.1637305006686809e+00  4.0934803597456311e+00  7.2361474947723190e+00  6.8397002177134647e+00  5.7110214921270330e+00  6.3718797052526810e+00  9.1080869211730793e+00  3.4709075158148073e+00  4.3478291519887806e+00  9.0358618548544918e+00  2.5032950178605669e+00  4.2039406681204761e-01  0.0000000000000000e+00  1.0000000000000000e+01  9.0792573449756730e+00  4.4082969842497460e-01  8.6172759233204377e-01  9.6423671340227268e-01  1.6260171915012371e+00  1.8195096331374416e+00  6.3136370815774576e+00  4.2040943253491841e-01  0.0000000000000000e+00  7.7727479472958425e+00  2.1837603669498238e+00  2.8814730036695182e+00  1.3006450471951188e+00  1.9961523965553190e+00  3.3574338783112294e+00  3.7574147032752490e+00  9.0785177381290474e+00  2.1804753468024205e+00  1.2758818190095449e+00  1.0000000000000000e+01  3.1830936595348320e+00  1.0000000000000000e+01  1.0000000000000000e+01  1.0000000000000000e+01  7.3060738201056363e+00  4.3420003306020902e+00  1.2758968236090908e+00  0.0000000000000000e+00  0.0000000000000000e+00  0.0000000000000000e+00  0.0000000000000000e+00  1.0000000000000000e+01  1.0000000000000000e+01  7.3579229351169548e+00  3.4483094078863883e+00  4.1400055193652285e-01  9.0564595382376645e+00  1.0612804016586299e+00  1.5888889804426525e+00  1.0835623780065033e+00  9.8971582853269335e-01  4.1094798422753115e-01  2.1393246772398800e+00  7.2116917954457156e+00  5.7997566616400942e+00  8.2515525894359865e+00  5.6090474729891744e+00  1.4729880092152376e+00  7.3146799044674635e+00  4.7453997302135340e+00  7.2205647512873847e+00  5.8709628330503358e+00  1.3972853019223941e+00  8.0182205501756378e+00  6.6250592823415344e+00  1.6828555561394933e+00  6.5496712116344815e+00  2.2362243840566083e+00  4.7122572850967028e+00  1.3329964883313838e+00  2.1579855001227619e+00  2.4903820990600649e+00  6.5207147425445502e+00  3.3223475903878659e+00  8.2831126372205706e+00  8.2681534579021569e+00  2.5996884157130329e+00  5.6438811277726586e+00  2.7309121268369485e+00  2.9852464406326273e+00  4.2186748677281072e+00  5.3446176614242153e+00  8.3933637673933337e+00  5.9138791788819907e+00  3.0410895943604812e+00  3.6080158090324627e-01  4.9103422678576178e+00  4.1281165203754355e+00  3.9572515447109304e+00  1.9466657531790474e+00  2.9068506351030394e+00  5.2801093040978460e+00  2.8092262955734690e+00  7.1840663724342928e+00  3.8391871206075971e+00  6.7905206421049282e+00  6.0971791182520017e+00  1.7439266769950259e+00  5.0066898432360816e+00  9.1577511626882457e-01  2.8005981099409338e-01  7.2763488828148084e+00  1.7741119563113539e+00  5.1961502319938537e+00  3.5446324821764186e-01  5.8870920754317604e+00  3.9327304768923081e+00  4.7310205773839176e+00  4.2519553601786102e+00  1.7903411828939739e+00  4.2588110257363612e+00  2.9022925970592599e+00  3.4215856936400320e+00  1.0023788451291675e+00  9.0891652427322900e-01  6.5919366673090067e+00  6.0002829760150833e+00  1.4970807055764745e+00  1.2708505226204361e+00  4.9692268141292564e+00  4.6032311929366214e+00  2.2877486472213464e+00  8.5613541444629115e-01  7.3531663478097553e-01  2.1835464075670847e+00  4.2249588759241590e+00  6.0347868897679664e+00  5.9164055415643491e+00  8.3996449175065404e+00  9.3085840915812312e+00  1.7949414757042490e+00  8.4216369329527048e+00  9.1964751266001343e+00  7.8529144740655932e+00  8.0429053898351093e+00  2.7538707024812886e-01  3.1305481286986303e-01  7.2771700333608047e-01  2.7315180600342304e+00  6.7513898701291675e-01  3.4414991991852178e-01  3.0511343205670877e-01  5.8636545836168952e-01  5.8032765961342636e-01  9.2093660153352186e+00  2.5188862887902870e+00  1.4280791130011889e+00  5.7329422542417170e+00  3.3948482851744286e+00  3.8439954982333071e+00  3.0048279752392388e+00  7.8123299904045806e-01  5.3534749712415417e+00  4.3218893081708263e+00  2.1381365758542521e+00  2.3558524717444689e+00  2.6390191004852254e-01  6.8880201290650591e+00  9.2283952019188451e+00  9.3120199709419715e+00  9.0822848754538210e+00  1.6144757862783594e+00  1.8203350211510294e+00  1.3810560221550119e+00  4.9482029352145709e+00  8.1442341667016773e+00  2.3618365184948145e+00  5.3969689850425775e+00  4.9105752565067053e+00  3.0350682630538652e+00  6.3147629406658803e+00  2.9559593142948963e+00  1.2656752950340457e+00  8.0655233294491389e+00  2.4200874912353578e+00  8.3913877487643163e+00  5.7974882641860614e-01  9.3139881948158276e+00  2.2524223067204310e-01  1.6666549560973178e+00  7.6089363139645272e+00  7.1477607507659018e+00  7.0630556547400225e+00  3.4557536860789719e+00  7.1579257517415296e-01  2.1962020470631111e-01  8.5467754726433736e+00  9.5190303840838268e+00  2.4378755283905376e+00  5.3479060716831270e+00  6.6629426323615224e+00  6.0900426931930864e+00  9.5187545493131722e+00  8.6245738004436152e+00  5.1889714139402985e+00  4.3629654316256161e+00  1.9475820905346104e+00  8.2130289344321505e-01  7.0017343582943459e-01  1.1332698855566374e+00  9.5183729537514168e+00  2.1047815957918120e-01  2.1071628266704887e-01  9.5190393520787406e+00  9.5166399141396454e+00  4.0345067256597877e+00  2.7062687014707215e-01  9.5161424297163126e+00  7.8925242173644632e+00  7.0217793863031535e+00  4.2842991298035180e+00  4.6613945555560470e+00  7.7364627513605768e+00  5.7736272454839765e+00  5.5108082112460268e+00  3.7481440488574864e+00  4.1431394699727875e+00  2.1960116838148100e-01  1.0621313539046306e+00  7.8458885354170000e+00  2.6743239416718985e+00  3.0732928152165120e+00  1.8123411472833117e+00  3.7156530758362170e+00  4.6636236414335324e+00  1.6945560722361463e+00  2.5184395280114686e+00  2.1797243826464663e+00  2.7791987101317845e+00  6.9927328116934575e+00  6.1118059440068739e+00  8.6940497256960168e+00  3.7666606986919695e+00  1.6732213634301862e+00  6.4759821944458784e-01  2.4837841079833134e+00  8.0547786873886604e+00  8.7999261710570629e+00  2.8007892372617338e-01  2.4868666336297468e-01  6.9109131616188719e+00  7.7990312192939193e+00  2.7953117733514814e+00  7.7117571160934935e+00  3.1799073968720828e+00  5.0692531329245041e+00  6.7714381103352297e+00  1.9709240682104847e+00  1.5361470176571457e+00  3.5280211308301959e+00  3.6901103913068325e+00  3.4462070160181297e+00  4.4292210212073586e+00  1.5284607668928121e+00  1.2139754312643340e+00  1.3364807401394607e+00  1.2345752999441477e+00  1.5582003789677474e+00  1.4957308693220053e+00  3.3993169576434821e+00  3.7254533709908304e+00  2.9237371396548530e+00  6.4942101673423869e+00  5.0246050442305670e+00  1.1375995536971533e+00  1.5371931649399138e+00  8.1595870317900889e+00  3.1356386151318909e+00  5.9400431051409663e+00  6.7591726736518032e+00  6.0768345402485195e+00  1.9475645081142146e+00  4.8059074807381954e+00  2.4706084679310951e+00  2.4890226782501061e+00  4.5030644671661451e+00  3.7781315142338179e+00  4.3185499857562881e+00  4.7593026607186113e+00  3.3802491953924512e+00  2.1922366483886031e+00  2.0634676640603051e+00  8.6821487218292646e+00  9.5354373129325953e+00  5.3730607769034480e+00  2.9585292813366615e-01  3.0783428749284241e+00  6.1882545752521594e+00  2.3781207531001782e+00  8.7283498674645603e+00  1.9827639026680774e+00  5.2770603349284420e+00  2.7657154432838680e+00  1.9109771099181176e+00  9.4779565797225462e+00  3.4665465370920706e-01  4.4604381300004174e+00  7.3047029885829264e+00  9.1065771812240683e+00  2.0997368437092154e-01  8.4454307457212110e+00  2.9205282919744704e+00  2.3406451476614647e+00  1.0856158194266312e+00  2.6471129990476455e-01  5.0787914946055581e+00  7.0107989644426905e-01  1.1386042830772429e+00  1.1613194602226291e+00  3.9009569941064171e+00  3.9090934871749137e+00  7.7357859872096535e+00  7.5620509504921776e+00  4.9983447688909326e+00  1.0000000000000000e+01  1.9967494632809855e+00  6.4163765545711948e-01  6.8017261736148393e+00  2.5329896996071772e+00  2.1788575126924976e+00  3.4236494920212772e+00  1.2514945034598677e+00  1.0589649424142917e+00  6.9786360148034499e+00  7.9670929378025344e+00  1.5798841413884990e+00  1.5136915532456436e+00  5.3475498753538293e+00  2.1229710787238569e+00  4.5386267948467101e+00  2.0118394381702949e+00  3.1022423355310051e+00  2.8400324698973232e+00  3.3938557169076113e+00  1.0000000000000000e+01  8.9847334908725127e+00  6.6866895117998331e+00  6.2407904493667781e+00  4.9130704086048654e-01  7.7579842583440222e+00  7.0567545763843054e+00  5.2379793017424747e+00  3.6160954930728550e+00  1.0588818737740857e+00  9.5108950122743856e+00  2.9924114172406759e+00  2.6952637307424543e+00  9.5520315709339609e-01  6.2591138522470557e-01  6.1399514573046039e+00  7.2578633512856552e+00  2.8672117197598350e+00  3.9033874751843500e+00  4.5378652237110817e+00  4.5986641918946720e+00  4.3088869239633016e+00  1.2553195651577416e+00  7.0277909603608739e+00  0.0000000000000000e+00  1.1670939912689522e+00  1.4198994906534106e+00  3.2626349558567411e+00  1.9955742428126804e+00  2.3564328461540591e+00  8.8113579834390343e+00  5.9258444592904223e+00  6.2269470828077260e+00  3.3693091596625093e+00  2.3768916732519019e-01  7.7019561784538935e+00  3.1773370806541181e+00  3.6341788811194773e+00  3.6582123467411658e+00  1.0000000000000000e+01  7.4857720064357212e+00  6.9399843401197447e+00  7.5996241371003492e+00  2.2589682143899581e+00  9.5385957619551007e+00  8.8514735938891533e+00  9.4627525804028032e+00  0.0000000000000000e+00  9.5385228844841503e+00  3.2096469363773505e+00  8.1201214453309711e-01  1.0573556427207773e+00  5.3827401107358561e+00  5.4066704687302112e+00  5.6860594944680578e+00  5.5855313957405368e+00  9.4888599418507393e+00  8.6488402452435302e+00  4.5987638759293423e+00  4.1712085023624104e+00  5.2465950521926874e-01  2.7676428215781868e+00  4.0921167662861686e+00  2.6054932581127273e+00  1.7855625545743525e+00  7.6322582670699612e-01  1.1112920095446355e+00  7.3791521537159310e-01  2.3891796886864642e+00  7.7496261092501824e+00  1.3150745208917969e+00  5.9230360601146668e+00  0.0000000000000000e+00  1.5641920714260535e+00  9.5023793390393969e+00  4.1421439722670272e-01  5.6283429408381478e+00  3.9892508484604448e+00  2.2097583310717952e+00  4.7955686959364714e+00  4.0074206808658213e+00  3.4674811861892461e+00  3.7380055747561292e+00  6.1784583622953342e+00  9.5168072002408390e+00  6.6545553772965216e-01  8.5663922408094937e+00  4.0703179417005391e+00  9.5282947188613552e+00  4.4726163160875148e+00  5.5465640781138932e+00  3.7616238975783167e+00  1.4704947469579202e+00  3.3315010102702356e+00  1.0000000000000000e+01  4.1049872977785817e+00  7.5015358355409756e-01  5.2805405394173395e+00  9.4217095605053125e-01  3.1783949223156931e+00  8.5538726318356542e+00  6.4844780468900911e+00  8.3679218650212595e-01  7.6631017425295567e-01  2.3305472482291059e+00  6.2737464716982816e-01  1.4608702625034122e+00  1.7299787260621595e+00  1.5848865680085900e+00  1.9096576800633849e+00  1.8315300829320957e+00  9.5166795907115684e+00  1.0000000000000000e+01  9.3097123988667130e-01  4.1164422671663070e+00  7.3158924168679613e+00  6.3589473798191873e+00  5.9959223290618384e+00  6.7411308876646014e+00  8.8893100060289374e+00  2.9197865552183226e+00  8.2239608048304671e+00  2.7084165872565893e+00  2.9115884634099940e+00  5.0086066767986361e+00  8.7251983763123775e+00  4.4104394606471677e+00  2.2193247753686025e+00  7.5543288763104659e+00  3.1652997633408426e+00  4.5703623918945953e+00  7.6068321811971158e+00  7.4212553414514968e+00  4.0338062161744519e+00  0.0000000000000000e+00  8.7511038339688074e+00  0.0000000000000000e+00  7.2858878109357166e+00  3.4569656886517230e+00  1.9524737124265417e+00  1.9686806997637221e+00  2.0004952109687943e+00  5.5886927536580657e+00  3.1254093924776178e+00  6.8875577076468133e+00  8.8195047138324689e-01  2.8268896809874380e+00  7.9087811061400588e+00  6.5889984106576556e+00  9.1564410115006645e-01  3.1363544996457411e+00  3.1792213946040717e+00  3.9851708288548227e+00  8.3931104661902811e+00  6.9810585701761472e+00  5.7138323988864075e+00  5.1031758325064205e+00  7.8243585412268333e+00  9.0599495664962522e+00  9.5379864031358323e+00  6.4773112506148776e+00  5.0498834311324137e-01  3.7392133152692852e+00  2.3071170700355334e-01  4.3400205797664153e+00  9.5381283183823964e+00  1.0000000000000000e+01  1.0000000000000000e+01  8.6246953879892505e+00  2.4199748650124584e+00  7.7356718352690601e+00  0.0000000000000000e+00  2.0999126231189705e-01  4.0340466121897673e+00  0.0000000000000000e+00  1.0000000000000000e+01  1.9473828607918824e+00  8.6244843988922000e+00  1.0000000000000000e+01  6.0889696475015382e+00  5.3469652513150976e+00  1.0000000000000000e+01  1.0000000000000000e+01  1.0000000000000000e+01  0.0000000000000000e+00  0.0000000000000000e+00  0.0000000000000000e+00  3.4556792361907882e+00  0.0000000000000000e+00  2.4196704666630651e+00  6.8875921851577599e+00  0.0000000000000000e+00  6.3171152433254896e-01  6.3169043123063362e-01  0.0000000000000000e+00  1.4958589747750091e+00  4.6627915491317218e+00  0.0000000000000000e+00  6.0895279937577182e+00  1.0000000000000000e+01  1.0000000000000000e+01  9.5385624320758104e+00  0.0000000000000000e+00  4.6626840183463782e+00  0.0000000000000000e+00  3.4560862016059177e+00  1.0000000000000000e+01  1.0000000000000000e+01  1.6040194438461317e+00  6.5946578114183998e+00  1.8242663309277810e-01  4.9383110267000729e+00  4.5574057978492863e+00  7.1537291607780373e+00  2.7893402744266167e+00  1.5043735798109927e+00  1.6759614927108217e+00  1.3414227001613803e+00  8.5479441318838862e+00  1.1671163036047403e+00  1.9798626955075735e-01  9.9181650241936659e-01  7.9536085275272175e+00  4.2653372618223412e-01  5.3172537190833269e-01  2.0651869595451480e-01  4.2949450421944868e-01  3.1512997517790825e-01  4.7313374011759174e-01  4.3991680476016470e-01  8.5925090085348597e+00  8.1029742129970810e+00  1.5972401958621807e+00  4.3736000998453939e+00  9.4905056449771141e+00  6.2081841046897046e-01  5.1964689852883721e+00  3.0619021927546135e+00  9.3996746448262281e-01  2.8145264374000263e+00  2.0142577504390178e+00  2.5447715357109235e+00  6.7004793804656924e+00  8.8181954495204593e+00  1.4589618994016467e+00  8.3275657310251905e+00  7.9295467674451769e+00  5.5788159415956606e+00  2.4391603943141011e+00  3.5663058862120596e+00  5.8742289012844697e+00  1.8207768305354612e+00  4.1256081727352294e+00  8.5498031866558062e+00  1.9984730702109677e+00  5.0301593124290953e+00  7.4997227564834965e+00  6.8065396539186560e+00  7.4213945316357481e+00  2.0236638364572754e-01  1.8029685881776627e+00  1.5874530120980319e+00  1.3856057436200391e+00  8.9841136029432700e-01  1.1408412307362279e+00  2.9751767697429776e+00  3.9600506941032503e+00  3.6235464370774442e+00  6.8545835144056833e+00  9.0839273054351679e+00  8.7593103221692985e+00  6.4353018751247131e+00  6.2177475819751891e+00  2.8489851311114212e+00  3.9881483162410736e+00  8.2152265354913445e-01  9.4953555417420066e-01  1.2645730441900747e+00  1.1324590748858967e+00  1.3677826404373088e+00  1.2964897177020995e+00  1.1809001948327145e+00  5.1568620263276479e+00  5.0701506799475382e+00  2.7623929142837391e+00  4.6321123219130644e+00  8.4999261400140540e+00  2.3711116573115456e+00  2.0348285110384943e+00  9.5891137269609672e+00  7.9477067632255478e+00  8.2025609668187354e+00  4.1628236014326321e+00  6.1619035657581711e-01  5.2342534788595270e+00  3.6003801215350948e+00  2.3344152407134517e+00  5.8494218599646990e+00  6.9209042469700757e+00  1.2016034435099499e+00  7.7133083007822814e+00  7.3746490806719134e+00  6.8424161701386979e+00  9.5209301275891232e+00  8.1872606311585123e+00  8.3442093142068092e+00  8.7769210795541301e+00  7.7898178647716643e+00  2.1687854246701610e+00  7.7105977936146164e-01  1.1301716949843816e+00  9.5361207483558825e+00  2.2404444422429872e+00  1.1392083402217856e+00  5.2725472174953154e+00  5.9103600043278837e+00  3.2622632268849001e+00  2.5835344184426385e+00  3.5280498866018375e+00  1.5373210376729549e+00  1.6314880522196877e+00  1.4826127431939928e+00  1.6749550030782437e-01  2.1197839901900086e+00  7.4092742906006634e+00  6.9156265406381809e+00  9.7237696141000818e-01  8.8683445961650484e+00  6.9818508369106285e+00  7.8117362690228980e+00  6.3010456271920070e+00  5.0124349571371036e+00  1.1653378132641028e+00  9.9510040402990252e-01  7.8637396325333397e-01  8.4570155964575822e-01  4.6641820668920015e+00  6.77760