<?xml version="1.0"?>
<VTKFile type="UnstructuredGrid"  version="0.1"  >
<UnstructuredGrid>
<Piece  NumberOfPoints="2513" NumberOfCells="4852">
<Points>
<DataArray  type="Float64"  NumberOfComponents="3"  format="ascii">-1 1 0  -1 -1 0  1 -1 0  1 1 0  0 -1 0  1 0 0  0 1 0  -1 0 0  0 0 0  -1 -0.5 0  -0.5 -1 0  -0.5 1 0  -1 0.5 0  1 -0.5 0  0.5 -1 0  1 0.5 0  0.5 1 0  0.4166666666666666 -0.4166666666666667 0  -0.4166666666666667 0.4166666666666667 0  -0.25 -0.5 0  0.5 0.25 0  -0.4861111111111112 -0.06944444444444445 0  0.0732758620689655 0.507183908045977 0  -0.625 -0.625 0  0.625 0.625 0  0.7380952380952381 -0.25 0  -0.7099116161616161 0.2105429292929293 0  -0.25 0.7380952380952381 0  0.105392156862745 -0.6348039215686275 0  0.6770833333333334 -0.6770833333333333 0  -0.6770833333333334 0.6770833333333334 0  0.3472222222222222 -0.06944444444444446 0  -0.7264957264957265 -0.3044871794871795 0  0.3141940982507127 0.7297313660835709 0  0.02049587951122483 -0.3227479397556124 0  -0.2690972222222223 0.1475694444444444 0  0.3859500089908372 -0.7274430156831472 0  -0.2228477945123298 -0.1761765495248019 0  0.2182539682539683 0.1884920634920635 0  0.75 0.375 0  -0.145442219440968 -0.7602211097204841 0  0.7088913690476191 0.0427827380952381 0  -0.75 -1 0  -1 -0.75 0  1 0.75 0  0.75 1 0  -0.7439982703698937 -0.04614153195464455 0  -0.4609235096577606 -0.3356498099556895 0  0.4063134471431929 0.4895621842856023 0  0.25 -1 0  -0.25 -1 0  -0.75 1 0  0.75 -1 0  -1 -0.25 0  -1 0.25 0  1 -0.25 0  -0.25 1 0  1 -0.75 0  -1 0.75 0  0.25 1 0  1 0.25 0  -0.4041423272138783 -0.7597141090712928 0  0.06500839607911253 0.7578103030529481 0  -0.1572801182352047 0.3838997021864289 0  -0.6528005242053915 0.4409494757946086 0  -0.4930160984848485 0.1544744318181818 0  -0.4732142857142858 0.7752976190476191 0  0.6398809523809523 -0.4538690476190476 0  0.5166054117396399 -0.2161233620965164 0  -0.002273787244753427 0.2232363985975174 0  0.1500564496765022 -0.1524955293952667 0  0.2016720420046758 -0.4410343282803009 0  -0.08495178036419618 0.6274139771124571 0  -0.8367311471133162 0.3642591720794645 0  -0.8333333333333334 -0.625 0  -0.594323836800685 -0.8231079456002283 0  -0.4466957714776065 -0.5349126855671806 0  0.8125 0.5625 0  0.78125 0.78125 0  0.5091392650016769 0.7947130883338923 0  0.125 -0.8382681931833136 0  -0.8184523809523809 -0.8184523809523809 0  -0.07781530426104531 -0.5819319697006881 0  0.5085055196703295 0.04967610411902112 0  0.2918471072074933 -0.276017202318847 0  0.5120763537765269 -0.5898771553229597 0  0.625 -0.8585349462365591 0  0.8158532234335381 -0.8158532234335381 0  -0.5198088446315396 0.5739411553684605 0  -0.8585349462365591 0.625 0  -0.8150493805516597 0.8156205699829586 0  0.8585349462365591 -0.625 0  -0.2688268348649726 0.5439331383603209 0  0.8242100426758139 -0.4436043596336612 0  0.5833756314287952 0.4479378157143976 0  0.8690476190476191 -0.125 0  -0.125 0.8690476190476191 0  -0.8692745600729823 0.125 0  0.8696725120759167 0.125 0  -0.625 0.8711516477451908 0  0.2339522463269718 0.3879558377955778 0  0.2453709502295031 0.5655822922838026 0  0.1730610651637797 0.02021709580868947 0  0.3245402594056757 -0.5644672020485209 0  -0.7291666666666666 -0.4816595441595442 0  -1 -0.375 0  -0.5811140848639904 -0.2127276307675001 0  0.673332592838314 0.2158348143233718 0  0.375 1 0  -0.5714768890989919 0.2985103444040069 0  -1 -0.125 0  -0.8453692574786325 -0.1875 0  -0.3144549134065865 -0.02408675326008025 0  -0.2898414972096258 -0.3336092734780093 0  -0.1075052092206287 -0.4224330421314983 0  -0.05043970703604117 -0.1652278959397459 0  0.6459672950297897 -0.1113415301525317 0  0.4645210271029513 0.6398480556579343 0  0.3512863754411909 0.0937979496253573 0  -0.6063160985568274 0.03891469652249891 0  -0.3428819444444445 0.8690476190476191 0  0.625 1 0  -0.1602164796159982 0.02697860906625157 0  0.04648110064133829 -0.4808416424239687 0  1 0.875 0  -0.3836102479201657 0.6484936449177356 0  -0.3776011723096096 0.263078478984336 0  -0.6024978259969829 -0.3949628096211138 0  0.125 1 0  0.2010781308272777 0.8456221018461906 0  0.2822509696388829 -0.845902544691141 0  -0.3285533674953515 -0.6289773550938936 0  0.3461306793221754 0.278777492464833 0  0.4737475672408696 -0.8508448959534423 0  0.2384632828836344 -0.7029523187242811 0  -0.004777287059791593 0.3759269695907358 0  -0.8499735021850066 -0.3912320205328522 0  0.1222536293721587 0.2963971539625205 0  -0.3769456520999688 -0.203572526805711 0  -0.2749617205755651 -0.8464290792698902 0  0.004805888512766143 -0.747174355248311 0  -0.125 -1 0  -0.06001061822252458 -0.8724007765244854 0  0.875 0.4375 0  0.854421179608893 0.271342359217786 0  0.875 1 0  -0.1499861095763589 0.2358309656934888 0  0.3381943639137225 0.8663061796405532 0  -0.7853090110442228 0.4998412775277108 0  0.7398165998560814 -0.5535192694951373 0  0.1580042122341573 -0.3100246140259917 0  -0.7291666666666667 -0.7142857142857142 0  -0.375 -1 0  0.6483368386154684 0.8514905990110488 0  -0.1295370103291928 -0.2826118305021242 0  0.07458201853700455 0.1123894386563915 0  0.6146465857036327 -0.3161203659316075 0  0.5551898493894731 -0.740296118159085 0  0.375 -1 0  0.482702798370208 -0.084133350091034 0  0.87890625 0.68359375 0  -0.05917195534525846 0.4971092425697621 0  0.1260710309213975 0.6343750312956699 0  0.8690476190476191 -0.3077066815262848 0  -0.2912010232560567 0.3668168386732139 0  -0.875 1 0  -1 0.875 0  1 -0.875 0  0.875 -1 0  -0.8689564281364567 -0.006189266075306407 0  -0.7449425635110547 0.08458938160051771 0  -0.7150266761936593 -0.1739444581417552 0  -0.5260034831318311 -0.711099823962112 0  -0.4724626808827322 -0.871722230709409 0  0.4734436795977052 0.377714794132168 0  -0.875 -1 0  -1 -0.875 0  0.6927189078571988 0.5156567235715964 0  -0.3742497615796874 -0.4296005251260107 0  -0.1969436423297711 -0.6387157229772615 0  -0.6179496409766825 -0.08933356056510935 0  -0.424405057115988 0.04452428810878029 0  -0.08479048335844169 0.1279607007132633 0  0.003830300099055113 0.8712085230656206 0  0.8748778838820267 -1.379218479898026e-05 0  -0.375 1 0  -0.625 1 0  1 0.125 0  -0.125 1 0  1 -0.375 0  1 -0.125 0  1 -0.625 0  0.625 -1 0  0.125 -1 0  -0.625 -1 0  -1 -0.625 0  -1 0.125 0  -1 0.375 0  -1 0.625 0  1 0.375 0  1 0.625 0  0.6325660748712082 0.3335187599557389 0  -0.06420945895056573 0.7549874027425891 0  -0.8769015540914771 0.2478802253893416 0  0.871875 0.871875 0  -0.6868091492840067 0.3270978624973681 0  -0.5363597469565949 0.412994850055505 0  -0.6803734992638302 0.5574295000651103 0  -0.7076253581162534 -0.8803439094224437 0  -0.8778089002295137 -0.5106896447504627 0  -0.3860184984222981 0.530566778071246 0  0.6109900617121508 0.1128453077697081 0  0.3896945134930274 -0.1915382873255086 0  0.7605656944697778 -0.06822134873122943 0  0.3576151269893478 0.5948388411612135 0  -0.5689902680792265 -0.5143596830118065 0  0.6262446286847614 -0.5735657901943212 0  0.2030558252325225 -0.5625263842513452 0  0.6123273142928579 0.7407533260723429 0  0.4016460890123554 -0.3042863223111857 0  -0.59039693199147 0.7578418819188018 0  0.7276932493917544 -0.3705808024528924 0  0.5222536818742854 -0.4713886230400014 0  -0.5101986527137737 0.8848365765607674 0  0.510560172809238 0.5356013299918891 0  -0.3603569195756083 0.75823710606415 0  0.1967279277813232 0.728226870058472 0  -0.6086880986371127 0.1545624071548516 0  -0.38105366729386 0.1511189987807864 0  -0.2944659463671584 -0.7359061804869591 0  0.5060729154966499 -0.3475227845833823 0  -0.09281616240412746 -0.06197858250969457 0  0.7649739583333334 0.6673177083333334 0  0.7628906249999999 0.890234375 0  -0.2666864184909611 0.2585504071132311 0  0.3635064892129658 0.3878003602709461 0  -0.2339409722222222 0.8901937905844155 0  -0.1718792125974916 -0.8957733325456778 0  0.1001768566329531 0.4023510017391879 0  0.3120260172693757 -0.4540546875576884 0  0.7804062804433681 0.1896628610854537 0  0.4087715451998049 0.187961780041608 0  -0.1584963477271457 0.5451611892421655 0  -0.8926817849258324 0.463022006336401 0  0.2338091473445219 -0.07576267331277289 0  0.08171112182813692 -0.2349087687359925 0  0.04635385178956847 -0.1044635073718474 0  -0.4377391632114205 -0.6448874471423088 0  -0.1907678351227189 0.6480215912813945 0  0.300605946475244 0.4741444604171038 0  -0.2145033720757486 -0.06751709909419711 0  0.6069191921170397 -0.005492331448357812 0  0.0214718770761248 0.6032397936031719 0  0.5476675683364878 0.8992752415326501 0  0.4387475014316537 0.9093708953002239 0  -0.4932997685306436 -0.4381009159993523 0  0.2515197695339056 -0.1791673369138964 0  -0.7291666666666667 -0.6088789682539681 0  -0.9166666666666667 -0.6875 0  0.620579540363709 -0.2122431523583302 0  -0.484950136419973 0.6719440339397442 0  0.2857044415400258 0.0137589173127316 0  -0.8945708364098356 -0.288306105327986 0  0.4043102720140535 0.7842914560451557 0  0.04123256238752064 -0.9026968245801402 0  0.2003676884403109 -0.9091888601740487 0  0.1068775558538842 -0.7373377130403223 0  -0.4804566783514427 -0.1763307203045643 0  0.108286342087769 -0.3993789328997278 0  -0.191883080105361 -0.3640821726430649 0  -0.07025064492006244 0.2984876656890053 0  -0.7039324641409584 0.788312126296613 0  -0.7311286585775438 0.8932502354831682 0  0.5171409396884947 0.1503852691889257 0  0.4229392823658633 -0.003216522184234835 0  -0.5621736087218259 -0.919558629836806 0  -0.626474064879544 -0.7266572613636506 0  0.2446828746617422 0.2867616783302419 0  0.1759429608742923 0.4776611759306416 0  -0.3468240303741654 -0.5260416435617549 0  -0.7465808808425306 0.4069574477998361 0  -0.7819962170660292 0.2802441065650652 0  -0.3742623214119594 -0.8547800509641984 0  0.1014498009713561 0.8506721983266377 0  0.4285217620918213 -0.5230190595570253 0  0.4091738370487775 -0.6256346204225141 0  0.78125 0.46875 0  0.90625 0.53125 0  -0.4791801348852565 0.2553992655702126 0  0.7843318610782772 -0.7086046956885941 0  0.8909728264971901 -0.7355183796514634 0  0.7041908166528879 -0.7830649143180282 0  0.7311821352
[...]
<PointData  Scalars="velocity-2"> 
<DataArray  type="Float64"  Name="velocity-2"  format="ascii">0.0000000000000000e+00  0.0000000000000000e+00  1.0000000000000000e+01  1.0000000000000000e+01  -1.9343244840274283e-12  1.0000000000000000e+01  7.4754658476382581e-13  0.0000000000000000e+00  4.8425583620342935e-13  0.0000000000000000e+00  -2.9751963811895544e-21  -7.0730425915572118e-22  0.0000000000000000e+00  1.0000000000000000e+01  4.9383726099306983e-04  1.0000000000000000e+01  2.6583456230186881e-04  -9.9012935231034675e-06  3.2867609573875509e-20  -8.2411341335837887e-17  6.6349252685862325e-04  -1.2367960034678484e-21  -1.8983390085081641e-12  1.7293879702234300e-23  4.8308850141952145e-02  6.3432370596604393e-01  3.4390598457685250e-24  1.0860137919295141e-17  -1.5528924063436555e-11  1.7573912499478661e-01  -1.5046175230776706e-24  -8.3010246192816349e-07  4.0085059165918256e-25  -9.8933680398427644e-08  7.4145276288987744e-13  9.3117684691054344e-18  -2.5575254444034274e-06  9.3426588253171159e-18  3.0759087617541116e-09  7.8618305940489552e-01  1.1940036001995369e-15  3.5455324708662195e-01  2.2050970293059609e-24  0.0000000000000000e+00  1.0000000000000000e+01  7.7944830676329246e-01  3.1357509454194338e-25  7.4166974152288137e-21  -1.8055473693727325e-06  2.8414144664705871e-08  1.2351572497111895e-16  -1.9302876258890484e-25  7.5150961564641883e-01  0.0000000000000000e+00  0.0000000000000000e+00  1.0000000000000000e+01  -2.1871923690475455e-16  1.0000000000000000e+01  0.0000000000000000e+00  4.2577904485237417e-08  1.0000000000000000e+01  1.0899688237251090e-19  6.7634190062008243e-12  1.3097937876823501e-16  -2.9480959163619272e-24  -1.0787119442240336e-20  6.0501165331415620e-21  6.8335299203769906e-02  1.1959552363233132e-03  -5.1211579168520288e-14  -4.5080395100032658e-10  1.6514625801431415e-09  -8.4737502328858875e-15  -2.8498294075332066e-27  -6.1474775871174092e-27  -1.4362711904789447e-24  -2.8985793516825494e-20  2.1061843997023808e+00  1.3359695036009973e+00  8.6744124241252098e-04  -9.5799134914881557e-11  7.8470369279558048e-26  -3.1794292688722125e-14  6.9550053797609839e-04  -5.0173136030398336e-09  9.3064961252209855e-04  5.1246555441042500e-02  2.1964133805863044e+00  6.1911308555078605e-22  -2.0619288430295651e-27  -2.0996428382073148e-26  3.7271116404815232e+00  -6.3325890521434833e-19  2.4465252074959665e+00  1.5329179949734593e-02  4.1575464305260761e+00  1.5756038809847907e-14  3.9608368676931055e-27  4.1853372517786296e+00  8.5416918791678150e-23  4.4637731352044668e-09  1.0735918436712158e-08  -4.1771007155477276e-10  -1.4696562440097392e-07  -7.2218366228692310e-25  0.0000000000000000e+00  -2.5550963601311000e-22  1.6137841143860637e-01  -4.4810226329266209e-06  -2.1173223129642793e-23  0.0000000000000000e+00  8.2448230750692543e-28  -9.0275088999671307e-19  -7.3554003295692507e-18  -3.9094491623173316e-15  -6.4180694786393398e-14  8.4551073757229533e-02  1.7084137950118639e-04  -1.0189953752838310e-06  3.7329777198679053e-23  2.8101135178238705e-18  4.0830102233673768e-02  -7.0143569740620957e-16  4.7821516663354890e-12  1.0000000000000000e+01  -2.4132055093451987e-21  -1.1884355779603522e-19  8.5832192139494860e-24  -3.1332891310836529e-10  6.1843695447153133e-10  -2.6509162468695100e-09  1.5619275614801510e-18  -6.6619895371627000e-07  2.5763502745239272e-04  5.6353716857100156e-09  1.4083328320531196e-13  2.2183128166531503e-26  -8.2292790955106798e-11  1.2411874822011907e-19  1.5128583656680674e-17  4.0519610407790611e-13  1.4014008877698165e-14  -1.3376179087700689e-14  4.4229113843579100e+00  3.5644286863001771e+00  4.4365613155257240e+00  -1.0215663643656165e-16  -5.9090954484273714e-07  4.4695840137554823e-26  6.6390197250212490e-01  -1.8465194546229409e-10  -3.5729585653580223e-25  5.6820663429641071e-19  8.8077113171311811e-02  4.6393601223698909e-15  5.0934921536979923e-13  3.4655693385299835e-02  5.8633988513706612e-03  -2.9948927186972533e-06  1.9856928229935029e-04  4.6036586068904448e+00  -2.6987112419861312e-14  -7.2981825773631269e-11  4.1562642449098544e+00  -1.4273689092931781e-18  6.1834313768364827e-27  0.0000000000000000e+00  1.0000000000000000e+01  4.4095490197201865e+00  6.7448172229457957e-27  -2.1367070905571750e-25  -2.0262878884833072e-24  -1.8059796045092994e-21  3.9667302380321980e-20  1.9642932476501067e-04  2.0024061104178953e-26  0.0000000000000000e+00  2.5923680872207971e-01  -6.2476446811030112e-19  -1.0441550591710085e-16  -2.1159358090621535e-23  -5.7675736240103495e-20  -1.2713807354602976e-14  3.9625650150246505e-13  4.4295711771848794e+00  -6.3864320033344114e-19  -4.5995608150210597e-23  1.0000000000000000e+01  2.3388688648743000e-14  1.0000000000000000e+01  1.0000000000000000e+01  1.0000000000000000e+01  4.4673771057961213e-02  -9.2295080246729078e-11  -3.2948137193554394e-23  0.0000000000000000e+00  0.0000000000000000e+00  0.0000000000000000e+00  0.0000000000000000e+00  1.0000000000000000e+01  1.0000000000000000e+01  6.0784736441121597e-02  -4.0713053154658260e-14  2.2211664086668301e-27  4.2682622688899849e+00  -1.9855096580862022e-24  3.4674674199455257e-23  6.6739569028970280e-25  -1.2708802406022345e-24  -1.7620567022769613e-27  1.1351256431259322e-19  3.2724353509603607e-02  -3.8453227002861938e-06  9.4256702675614401e-01  -9.2119939344356456e-07  -3.3286157947311395e-22  4.9596979479780097e-02  1.2079613651280325e-09  3.5823233028547549e-02  -4.0388613558571720e-06  3.0517157975980064e-23  5.0461426867592585e-01  1.7194562111819750e-03  6.4760298753839136e-21  1.0353362700114247e-03  3.9079957640108107e-21  9.1809045115624476e-10  -1.9417273122126814e-22  -2.3422056220951868e-19  7.8849712285647893e-18  8.0994133393534379e-04  -5.2122526845865609e-15  1.0202644960080303e+00  9.7952746476644681e-01  -1.4416492798048319e-17  -7.5358983537672484e-07  5.0712895102456914e-17  2.6849678253947303e-16  -8.9146188084273681e-12  -9.9747522104685081e-08  1.3021491212685341e+00  2.0565902689090724e-06  5.3330465938147177e-16  2.7762500218566009e-28  8.3821354045005362e-09  1.5375669061628848e-12  5.6787737719315612e-12  4.4964151499934862e-20  1.2486574929632767e-17  -8.2307585593129211e-08  -2.0173212590962227e-17  3.0045616723499056e-02  7.2938903845501580e-13  4.8874916513943116e-03  3.2068770577380391e-06  -1.0100844960113373e-21  1.3781190841603425e-08  2.7586513663960035e-25  -1.1825329668412095e-28  4.1572427445291875e-02  -1.8102765580428011e-23  8.1607717901076125e-09  -5.8118220662284758e-27  -3.1256835460030025e-06  2.6759426735687073e-12  8.4666937386636070e-11  -7.5249604146288775e-12  -7.9150418514672143e-22  -1.6229369912108842e-11  -1.0630364690664342e-16  -2.1887764579125794e-14  6.1208193096439014e-26  -4.9138888451343237e-26  1.4328076706011435e-03  -6.5506950400690709e-06  -5.0470421411210840e-23  -2.6248809229561234e-23  1.1010607729814148e-08  2.0485269676390468e-10  -2.0884012132160016e-18  -9.7587380042687053e-26  1.5944190789802691e-26  3.9606919668343763e-19  -2.5199131248852037e-11  1.6911662351704860e-05  -2.1585686123357836e-07  1.3390200125925671e+00  5.8914584255974933e+00  1.7123500202249188e-21  1.3961783218188268e+00  5.1623660463938625e+00  3.2722313008652559e-01  5.5823772135216099e-01  -3.2997157214152667e-28  1.6974711003699144e-29  -2.9721881311721648e-27  -6.1314559670053450e-17  3.6528801646522806e-25  9.8044275760154899e-27  3.5730001720339973e-27  7.3880764205509357e-27  -1.7387208889860942e-26  5.2422637393841924e+00  -1.7794074438466214e-18  2.7913117626479311e-23  -1.1770457881118145e-06  1.8788820890888570e-14  9.2868948973545163e-13  6.1999486719750966e-16  -2.0270070537231736e-26  -9.8666888874627358e-08  -7.1651250719530116e-11  -2.1594894237472376e-20  -1.3031622271781162e-18  2.9643270973517048e-28  7.9269084699938874e-03  5.3574191888374152e+00  5.9185543097536506e+00  4.4338019589223476e+00  -4.7022640085767347e-22  2.0652289364015956e-20  -9.7993645788521402e-23  1.1892053764545648e-08  7.0038470996999058e-01  -3.9087407279052359e-18  -1.8987084698338025e-07  7.3908905418904665e-09  -5.4658915210589843e-16  2.1314929704606620e-04  2.2951891334970435e-16  3.6826670185899421e-23  5.8067469587462706e-01  1.3197612881093838e-17  1.3170285267449815e+00  1.9326118291987821e-26  5.9340951184944402e+00  4.2446320942096197e-28  -7.0852047343422142e-22  1.5195844678913301e-01  2.3852461516852736e-02  1.6468244206073426e-02  -3.9479328391794844e-13  4.5828293334704831e-26  1.3707199830669968e-29  1.8038782795412087e+00  7.2887484685053021e+00  3.1425937118232180e-18  -6.7743653821107968e-08  2.0680634414375321e-03  2.7127520845684500e-05  7.2726455374160173e+00  2.0907588941293831e+00  -3.0266417224476407e-09  -1.7413324752660938e-10  -1.9641568943841178e-20  4.7067281805402766e-25  -1.2914170924061406e-25  -9.4666722128104596e-25  7.2542349524630891e+00  -1.2750739515861142e-27  -2.1298241315516548e-28  7.2922916047855297e+00  7.2470922130795605e+00  7.7228419381544175e-12  2.3644174316776240e-28  7.2541199169906676e+00  3.5163014470012621e-01  1.2876546372623327e-02  -6.3190392337269140e-11  8.0627059089377733e-10  2.3135168626289268e-01  -2.2945021810250281e-06  -6.6077768696361564e-07  7.7261171448551865e-14  -2.2872407264143660e-12  -7.8691165638585736e-28  -5.9994008908694382e-24  3.0940078827902806e-01  -8.3089059158683968e-17  2.0774873453479514e-15  -7.3356269330814538e-21  -2.4068371233815468e-13  1.5751104900486657e-10  -8.4609580642192596e-21  1.3777940334865318e-18  -5.1868696357585924e-19  8.2025150556077417e-17  1.1779043530180878e-02  1.1516601375758269e-05  2.3870645812466211e+00  4.4757292951760602e-13  2.6754538609605144e-21  -4.6480728099042251e-26  8.3022257807924672e-18  5.7100879855797815e-01  2.8724969732594006e+00  -6.3070085832035036e-28  -1.6978132631685631e-29  7.4581745333348968e-03  2.7035044178417528e-01  -7.5447521337993885e-17  2.0595591660131524e-01  2.2387232078043824e-15  4.2474229813245541e-08  3.7168514391875429e-03  4.8699052588583770e-20  -5.6798683086859894e-22  -9.2603847533041808e-14  -4.0859714378650246e-14  -7.3674787767225580e-15  -1.1555004555542090e-10  -4.3728221821424965e-23  -1.0810160304905660e-24  2.1195141222964464e-23  -2.1082279037603093e-23  -7.1809098812018775e-22  3.1236041734384846e-22  -1.2807386412146232e-14  -6.0480782300116822e-13  -1.8921803321181859e-17  8.7385669117620774e-04  1.1477688774885124e-08  3.6997330685331311e-24  -2.1391063660829896e-22  7.4773623358541363e-01  -7.4289029678382035e-17  4.6564212669448795e-06  3.8300741562818817e-03  1.2310476501526043e-05  2.3227641293578036e-19  1.9570700043344009e-09  3.6348353164307986e-17  1.1617964818577087e-17  -1.9747094088923430e-10  3.4560003245563489e-16  1.2091487550844549e-12  9.3438963304626996e-10  -6.7862214702261396e-18  -5.3835300002737564e-19  6.7981493443333382e-19  2.3489648533061445e+00  7.3834182634393235e+00  -2.0376919576669917e-07  -9.5489257028468143e-29  1.3805764079790868e-15  7.3733932430697073e-05  1.7224890323551271e-19  2.5523084950414994e+00  -1.0097016934146313e-19  -2.8977984400399827e-08  -2.0562954796113039e-18  2.1487350519083694e-21  7.0149432261310558e+00  -1.4135163053742563e-27  -2.3914703036818466e-10  5.0380831909287709e-02  4.5665600187932300e+00  -3.5713820854531599e-27  1.4739424008704094e+00  -7.1145790244470855e-16  6.5248923373457981e-20  5.2283112904781247e-24  9.6745974046259884e-28  3.2047096770526622e-08  7.6016177939420947e-26  -1.9272969110515055e-23  -2.4414745939159952e-23  1.4089713274594999e-12  1.5270890303295390e-12  2.0642906862794039e-01  1.2544573369183767e-01  1.5205701852513589e-08  1.0000000000000000e+01  2.3583132337160330e-20  -6.2400129269473762e-26  5.5321339910820904e-03  2.7046191387397910e-18  -1.4748672919391449e-20  1.2248626652165462e-14  -2.8269187950139131e-23  -3.0212336943067190e-24  1.2010825417934518e-02  4.5558697013381538e-01  -3.1282472914264107e-23  -9.4794275303110140e-24  1.9407919546741596e-07  3.8987156533318402e-20  -1.8434164844117883e-11  -4.5873373240668490e-20  -2.0160312324758977e-16  -5.3250106608999352e-17  -9.2174818940832999e-15  1.0000000000000000e+01  3.8736801430817529e+00  2.0660707846024895e-03  1.4237985412682654e-04  3.7168882678036566e-27  2.4798449834467248e-01  1.7046716700464225e-02  -3.8810940629061714e-08  -2.1397056683068349e-13  2.9478869602180785e-24  7.2026964096169346e+00  3.8717216577433792e-15  1.0365685421779594e-17  -4.9069419874728296e-25  1.3834497274572495e-26  3.9364920284623190e-05  4.1090881201198949e-02  1.1751917977702887e-16  3.3785174870523901e-12  2.7791333890946188e-11  -3.8912133880417835e-11  -9.0511966165017611e-11  -2.1708053538289985e-23  1.3266626582770688e-02  0.0000000000000000e+00  1.0602587776473295e-23  -2.0406059404833504e-22  2.4766502150882787e-14  3.8918887016435888e-21  4.3535185726387213e-20  2.9535586427357474e+00  -2.1467808621369311e-06  2.8056600124217522e-05  3.1901029502970592e-15  -1.3907608367809420e-28  2.0128231029618204e-01  2.7633898643791339e-15  -4.3212202877272411e-13  -8.3518957224094733e-14  1.0000000000000000e+01  9.6494937181944282e-02  9.9301638215778341e-03  1.4380675814374744e-01  -2.2618516153488086e-18  7.3991877965020327e+00  3.1467344530661565e+00  6.9047988079785148e+00  0.0000000000000000e+00  7.3876233513713458e+00  1.0706044277115423e-14  -7.0800542721571187e-26  -1.4757845793339131e-24  -2.0780772160348384e-07  -2.5499009191084396e-07  -2.8444576557947569e-06  -1.1387835855567353e-06  7.0823389435447188e+00  2.1937474298834920e+00  6.0277259787105035e-12  -6.6671226885327858e-12  4.9055135878547628e-27  4.0655372336776734e-17  -6.9837445520159152e-13  -2.5140232659147550e-18  -5.4460529530673830e-21  -7.1320033433101359e-26  -1.2848969781453905e-24  1.1930017629773322e-26  -3.9487915259646045e-18  2.3403932981412051e-01  -3.9942249254638217e-24  -4.9085356347063336e-07  0.0000000000000000e+00  -5.3166093231591358e-22  7.1657346301564937e+00  8.1305351591213365e-28  -1.1421043988011470e-06  1.7843204191330646e-12  3.5898434453490674e-19  6.8279421837888550e-10  8.3787686582699590e-12  -5.8847265389495746e-14  -1.4285239104493084e-13  2.3989588815564286e-05  7.2691514028331312e+00  -2.0530887843855446e-27  1.9047467381404692e+00  -1.1981434171968032e-13  7.3381544294379983e+00  -1.9350264464362725e-10  -7.0197812933719797e-07  1.4870600585965097e-13  6.3038669586659441e-23  -3.2656602968342265e-15  1.0000000000000000e+01  -7.6171387097618355e-13  -1.6538941376587719e-25  -8.0075209039459756e-08  6.3542800857679178e-25  1.5098535449371381e-15  1.8188984739028176e+00  7.2159195434309635e-04  2.4697382329923406e-25  -6.5153951743507312e-26  5.2580953775513263e-19  -3.1904208420100384e-27  -1.6443817886399336e-22  2.1131813089043160e-20  -6.5787171807707800e-23  5.2541079236750828e-20  2.0734809561510246e-21  7.2735117657014339e+00  1.0000000000000000e+01  6.4741771183658490e-25  -2.2262674817992333e-12  4.7034790326087497e-02  2.9186313054799912e-04  2.2340194403051199e-05  3.8794267237288078e-03  3.3491582367766788e+00  -1.6141561848223873e-15  8.7397527405857867e-01  5.7745417586895721e-18  3.1621550261507625e-17  7.8153926262761451e-09  2.5402772465237353e+00  -5.1294614137166862e-11  -4.9345509397235567e-19  1.2598427835301307e-01  1.0629618786446079e-15  -6.3764449047299762e-11  1.5214287552265809e-01  8.0904436619441147e-02  2.6113737807942672e-11  0.0000000000000000e+00  2.6528446313709173e+00  0.0000000000000000e+00  4.6158686233825595e-02  -3.3280316088270226e-14  -1.2041378882717869e-20  -1.9903501375829089e-20  1.0445628244092824e-20  -6.3329915475144617e-07  1.7657875934314766e-15  6.2301342879018578e-03  7.6295609896902396e-25  2.8340356861479336e-17  3.8189293165260441e-01  1.5265112522050734e-03  9.9042879989298989e-25  2.3431338500585205e-16  8.7385400607639773e-15  3.9932711905522772e-14  1.2753883317217336e+00  9.7964792752886134e-03  -1.4528495029412936e-06  2.1317322359478809e-08  2.9541821822407999e-01  4.3063130986488360e+00  7.3713471499630909e+00  8.3018767681007014e-04  -6.4415553044072219e-28  5.5727453055467300e-13  6.2011951540832554e-29  -1.7088992209959044e-10  7.3956757409309004e+00  1.0000000000000000e+01  1.0000000000000000e+01  2.1343553218233891e+00  2.6689489387394888e-18  2.1766481256010803e-01  0.0000000000000000e+00  -8.0398350634948373e-28  3.5418954317467547e-11  0.0000000000000000e+00  1.0000000000000000e+01  1.9311325520393475e-20  2.0896267775576320e+00  1.0000000000000000e+01  -8.3973601234663337e-06  8.7784817607085731e-08  1.0000000000000000e+01  1.0000000000000000e+01  1.0000000000000000e+01  0.0000000000000000e+00  0.0000000000000000e+00  0.0000000000000000e+00  -8.8642873500775497e-13  0.0000000000000000e+00  -1.2067570980321274e-18  6.9099482149091998e-03  0.0000000000000000e+00  -1.3299883861892756e-26  3.0301845742393945e-25  0.0000000000000000e+00  -1.0482102249026992e-21  -2.4665959263119863e-09  0.0000000000000000e+00  -4.4497415657904264e-06  1.0000000000000000e+01  1.0000000000000000e+01  7.3797551721141925e+00  0.0000000000000000e+00  -1.5940769937614723e-09  0.0000000000000000e+00  -2.6209266710087502e-13  1.0000000000000000e+01  1.0000000000000000e+01  1.0974323769355722e-21  1.0482116854092012e-03  1.2195356128006057e-27  2.9232526386349088e-09  -8.4471145215859452e-10  2.6372886174376203e-02  -4.9452833924967700e-17  -3.3642291555034404e-22  -2.6106115322876254e-21  -2.5939870309930744e-24  1.7932266671426271e+00  -2.6309374667947142e-23  -3.4276271458680626e-28  -5.2607400340661971e-26  4.4446953623446039e-01  3.1504359362645206e-27  -6.9609808248650037e-27  -4.7141362378875950e-28  1.5166770310545808e-27  -7.1473842161894402e-28  -6.5885837460840995e-27  -4.3500365500513855e-27  1.9830896310652617e+00  6.4926272684379016e-01  4.8952955609045872e-22  -7.4273430529036591e-11  7.0850096283122577e+00  8.2630417175280686e-26  3.0145270074218654e-09  5.9356516979456956e-16  -5.2134884732861453e-25  1.4626887959639741e-17  -1.1460753732031464e-20  4.8229149866815754e-18  2.5962382480954954e-03  2.9603436714455977e+00  -1.6840449010944017e-22  1.1195306057146643e+00  3.9771274724531580e-01  -1.2535024538802593e-06  -3.8277494991088389e-18  -6.3719455435943629e-14  -7.1568961156563197e-06  -6.2846797570872791e-21  -9.5087525002641361e-13  1.8008813826153529e+00  -7.6937050779879038e-20  1.2499134728453961e-08  9.9108461863757227e-02  4.5802575544427061e-03  7.8744381894554752e-02  2.9300749143651228e-28  -1.6778705663453078e-21  6.6450843444680988e-22  -1.4416321606280617e-23  -4.1415808071091838e-25  -9.8671879753301235e-24  -1.7072169276657191e-15  2.9284048826660319e-12  -9.4133885940349399e-14  5.8824721780081956e-03  4.4175608252109377e+00  2.6876580463394006e+00  5.3726382096950251e-04  4.4354595222964974e-05  2.4160860476704772e-17  7.5796883296742811e-12  -8.8053275253098234e-26  1.7194600968351786e-25  7.9794971210367736e-24  -1.1015227102238733e-24  -2.2177762722638085e-23  -1.3989218753115262e-23  -2.9163729038497025e-24  2.4816696349594537e-08  3.1925098021181820e-08  -7.2643652750347120e-17  6.2070452559060771e-11  1.6394246169169895e+00  -6.6335299762096441e-19  -8.3011443350014253e-20  7.6939746248377636e+00  4.2773935214822406e-01  8.2400066581075981e-01  1.5316981271308501e-11  3.2688783861276095e-26  3.8432255234738143e-08  -6.1605957768440153e-14  4.3656049665982501e-19  -7.0095350741015461e-06  8.2996820455717331e-03  -1.9652549683611610e-23  1.9906452460797630e-01  6.3417478559248355e-02  6.5670456781012796e-03  7.2950465200972596e+00  8.1430747160419270e-01  1.1455435142429042e+00  2.7601441654804248e+00  2.6750666719474464e-01  -2.9735637098067282e-19  -2.1499251152650316e-25  1.6433717698321409e-23  7.3759714378351298e+00  6.7149059747532462e-19  1.0596260380836601e-23  -6.4559084265263326e-08  7.2226827581464976e-06  5.3831277919343532e-15  2.0510640451497857e-17  -9.3424939466386743e-14  1.7355024775481223e-21  1.3893297114307590e-21  -8.2802286334045591e-22  8.2789486880674954e-28  -2.3166430737249807e-20  7.3413752340386523e-02 