<?xml version="1.0"?>
<VTKFile type="UnstructuredGrid"  version="0.1"  >
<UnstructuredGrid>
<Piece  NumberOfPoints="2513" NumberOfCells="4852">
<Points>
<DataArray  type="Float64"  NumberOfComponents="3"  format="ascii">-1 1 0  -1 -1 0  1 -1 0  1 1 0  0 -1 0  1 0 0  0 1 0  -1 0 0  0 0 0  -1 -0.5 0  -0.5 -1 0  -0.5 1 0  -1 0.5 0  1 -0.5 0  0.5 -1 0  1 0.5 0  0.5 1 0  0.4166666666666666 -0.4166666666666667 0  -0.4166666666666667 0.4166666666666667 0  -0.25 -0.5 0  0.5 0.25 0  -0.4861111111111112 -0.06944444444444445 0  0.0732758620689655 0.507183908045977 0  -0.625 -0.625 0  0.625 0.625 0  0.7380952380952381 -0.25 0  -0.7099116161616161 0.2105429292929293 0  -0.25 0.7380952380952381 0  0.105392156862745 -0.6348039215686275 0  0.6770833333333334 -0.6770833333333333 0  -0.6770833333333334 0.6770833333333334 0  0.3472222222222222 -0.06944444444444446 0  -0.7264957264957265 -0.3044871794871795 0  0.3141940982507127 0.7297313660835709 0  0.02049587951122483 -0.3227479397556124 0  -0.2690972222222223 0.1475694444444444 0  0.3859500089908372 -0.7274430156831472 0  -0.2228477945123298 -0.1761765495248019 0  0.2182539682539683 0.1884920634920635 0  0.75 0.375 0  -0.145442219440968 -0.7602211097204841 0  0.7088913690476191 0.0427827380952381 0  -0.75 -1 0  -1 -0.75 0  1 0.75 0  0.75 1 0  -0.7439982703698937 -0.04614153195464455 0  -0.4609235096577606 -0.3356498099556895 0  0.4063134471431929 0.4895621842856023 0  0.25 -1 0  -0.25 -1 0  -0.75 1 0  0.75 -1 0  -1 -0.25 0  -1 0.25 0  1 -0.25 0  -0.25 1 0  1 -0.75 0  -1 0.75 0  0.25 1 0  1 0.25 0  -0.4041423272138783 -0.7597141090712928 0  0.06500839607911253 0.7578103030529481 0  -0.1572801182352047 0.3838997021864289 0  -0.6528005242053915 0.4409494757946086 0  -0.4930160984848485 0.1544744318181818 0  -0.4732142857142858 0.7752976190476191 0  0.6398809523809523 -0.4538690476190476 0  0.5166054117396399 -0.2161233620965164 0  -0.002273787244753427 0.2232363985975174 0  0.1500564496765022 -0.1524955293952667 0  0.2016720420046758 -0.4410343282803009 0  -0.08495178036419618 0.6274139771124571 0  -0.8367311471133162 0.3642591720794645 0  -0.8333333333333334 -0.625 0  -0.594323836800685 -0.8231079456002283 0  -0.4466957714776065 -0.5349126855671806 0  0.8125 0.5625 0  0.78125 0.78125 0  0.5091392650016769 0.7947130883338923 0  0.125 -0.8382681931833136 0  -0.8184523809523809 -0.8184523809523809 0  -0.07781530426104531 -0.5819319697006881 0  0.5085055196703295 0.04967610411902112 0  0.2918471072074933 -0.276017202318847 0  0.5120763537765269 -0.5898771553229597 0  0.625 -0.8585349462365591 0  0.8158532234335381 -0.8158532234335381 0  -0.5198088446315396 0.5739411553684605 0  -0.8585349462365591 0.625 0  -0.8150493805516597 0.8156205699829586 0  0.8585349462365591 -0.625 0  -0.2688268348649726 0.5439331383603209 0  0.8242100426758139 -0.4436043596336612 0  0.5833756314287952 0.4479378157143976 0  0.8690476190476191 -0.125 0  -0.125 0.8690476190476191 0  -0.8692745600729823 0.125 0  0.8696725120759167 0.125 0  -0.625 0.8711516477451908 0  0.2339522463269718 0.3879558377955778 0  0.2453709502295031 0.5655822922838026 0  0.1730610651637797 0.02021709580868947 0  0.3245402594056757 -0.5644672020485209 0  -0.7291666666666666 -0.4816595441595442 0  -1 -0.375 0  -0.5811140848639904 -0.2127276307675001 0  0.673332592838314 0.2158348143233718 0  0.375 1 0  -0.5714768890989919 0.2985103444040069 0  -1 -0.125 0  -0.8453692574786325 -0.1875 0  -0.3144549134065865 -0.02408675326008025 0  -0.2898414972096258 -0.3336092734780093 0  -0.1075052092206287 -0.4224330421314983 0  -0.05043970703604117 -0.1652278959397459 0  0.6459672950297897 -0.1113415301525317 0  0.4645210271029513 0.6398480556579343 0  0.3512863754411909 0.0937979496253573 0  -0.6063160985568274 0.03891469652249891 0  -0.3428819444444445 0.8690476190476191 0  0.625 1 0  -0.1602164796159982 0.02697860906625157 0  0.04648110064133829 -0.4808416424239687 0  1 0.875 0  -0.3836102479201657 0.6484936449177356 0  -0.3776011723096096 0.263078478984336 0  -0.6024978259969829 -0.3949628096211138 0  0.125 1 0  0.2010781308272777 0.8456221018461906 0  0.2822509696388829 -0.845902544691141 0  -0.3285533674953515 -0.6289773550938936 0  0.3461306793221754 0.278777492464833 0  0.4737475672408696 -0.8508448959534423 0  0.2384632828836344 -0.7029523187242811 0  -0.004777287059791593 0.3759269695907358 0  -0.8499735021850066 -0.3912320205328522 0  0.1222536293721587 0.2963971539625205 0  -0.3769456520999688 -0.203572526805711 0  -0.2749617205755651 -0.8464290792698902 0  0.004805888512766143 -0.747174355248311 0  -0.125 -1 0  -0.06001061822252458 -0.8724007765244854 0  0.875 0.4375 0  0.854421179608893 0.271342359217786 0  0.875 1 0  -0.1499861095763589 0.2358309656934888 0  0.3381943639137225 0.8663061796405532 0  -0.7853090110442228 0.4998412775277108 0  0.7398165998560814 -0.5535192694951373 0  0.1580042122341573 -0.3100246140259917 0  -0.7291666666666667 -0.7142857142857142 0  -0.375 -1 0  0.6483368386154684 0.8514905990110488 0  -0.1295370103291928 -0.2826118305021242 0  0.07458201853700455 0.1123894386563915 0  0.6146465857036327 -0.3161203659316075 0  0.5551898493894731 -0.740296118159085 0  0.375 -1 0  0.482702798370208 -0.084133350091034 0  0.87890625 0.68359375 0  -0.05917195534525846 0.4971092425697621 0  0.1260710309213975 0.6343750312956699 0  0.8690476190476191 -0.3077066815262848 0  -0.2912010232560567 0.3668168386732139 0  -0.875 1 0  -1 0.875 0  1 -0.875 0  0.875 -1 0  -0.8689564281364567 -0.006189266075306407 0  -0.7449425635110547 0.08458938160051771 0  -0.7150266761936593 -0.1739444581417552 0  -0.5260034831318311 -0.711099823962112 0  -0.4724626808827322 -0.871722230709409 0  0.4734436795977052 0.377714794132168 0  -0.875 -1 0  -1 -0.875 0  0.6927189078571988 0.5156567235715964 0  -0.3742497615796874 -0.4296005251260107 0  -0.1969436423297711 -0.6387157229772615 0  -0.6179496409766825 -0.08933356056510935 0  -0.424405057115988 0.04452428810878029 0  -0.08479048335844169 0.1279607007132633 0  0.003830300099055113 0.8712085230656206 0  0.8748778838820267 -1.379218479898026e-05 0  -0.375 1 0  -0.625 1 0  1 0.125 0  -0.125 1 0  1 -0.375 0  1 -0.125 0  1 -0.625 0  0.625 -1 0  0.125 -1 0  -0.625 -1 0  -1 -0.625 0  -1 0.125 0  -1 0.375 0  -1 0.625 0  1 0.375 0  1 0.625 0  0.6325660748712082 0.3335187599557389 0  -0.06420945895056573 0.7549874027425891 0  -0.8769015540914771 0.2478802253893416 0  0.871875 0.871875 0  -0.6868091492840067 0.3270978624973681 0  -0.5363597469565949 0.412994850055505 0  -0.6803734992638302 0.5574295000651103 0  -0.7076253581162534 -0.8803439094224437 0  -0.8778089002295137 -0.5106896447504627 0  -0.3860184984222981 0.530566778071246 0  0.6109900617121508 0.1128453077697081 0  0.3896945134930274 -0.1915382873255086 0  0.7605656944697778 -0.06822134873122943 0  0.3576151269893478 0.5948388411612135 0  -0.5689902680792265 -0.5143596830118065 0  0.6262446286847614 -0.5735657901943212 0  0.2030558252325225 -0.5625263842513452 0  0.6123273142928579 0.7407533260723429 0  0.4016460890123554 -0.3042863223111857 0  -0.59039693199147 0.7578418819188018 0  0.7276932493917544 -0.3705808024528924 0  0.5222536818742854 -0.4713886230400014 0  -0.5101986527137737 0.8848365765607674 0  0.510560172809238 0.5356013299918891 0  -0.3603569195756083 0.75823710606415 0  0.1967279277813232 0.728226870058472 0  -0.6086880986371127 0.1545624071548516 0  -0.38105366729386 0.1511189987807864 0  -0.2944659463671584 -0.7359061804869591 0  0.5060729154966499 -0.3475227845833823 0  -0.09281616240412746 -0.06197858250969457 0  0.7649739583333334 0.6673177083333334 0  0.7628906249999999 0.890234375 0  -0.2666864184909611 0.2585504071132311 0  0.3635064892129658 0.3878003602709461 0  -0.2339409722222222 0.8901937905844155 0  -0.1718792125974916 -0.8957733325456778 0  0.1001768566329531 0.4023510017391879 0  0.3120260172693757 -0.4540546875576884 0  0.7804062804433681 0.1896628610854537 0  0.4087715451998049 0.187961780041608 0  -0.1584963477271457 0.5451611892421655 0  -0.8926817849258324 0.463022006336401 0  0.2338091473445219 -0.07576267331277289 0  0.08171112182813692 -0.2349087687359925 0  0.04635385178956847 -0.1044635073718474 0  -0.4377391632114205 -0.6448874471423088 0  -0.1907678351227189 0.6480215912813945 0  0.300605946475244 0.4741444604171038 0  -0.2145033720757486 -0.06751709909419711 0  0.6069191921170397 -0.005492331448357812 0  0.0214718770761248 0.6032397936031719 0  0.5476675683364878 0.8992752415326501 0  0.4387475014316537 0.9093708953002239 0  -0.4932997685306436 -0.4381009159993523 0  0.2515197695339056 -0.1791673369138964 0  -0.7291666666666667 -0.6088789682539681 0  -0.9166666666666667 -0.6875 0  0.620579540363709 -0.2122431523583302 0  -0.484950136419973 0.6719440339397442 0  0.2857044415400258 0.0137589173127316 0  -0.8945708364098356 -0.288306105327986 0  0.4043102720140535 0.7842914560451557 0  0.04123256238752064 -0.9026968245801402 0  0.2003676884403109 -0.9091888601740487 0  0.1068775558538842 -0.7373377130403223 0  -0.4804566783514427 -0.1763307203045643 0  0.108286342087769 -0.3993789328997278 0  -0.191883080105361 -0.3640821726430649 0  -0.07025064492006244 0.2984876656890053 0  -0.7039324641409584 0.788312126296613 0  -0.7311286585775438 0.8932502354831682 0  0.5171409396884947 0.1503852691889257 0  0.4229392823658633 -0.003216522184234835 0  -0.5621736087218259 -0.919558629836806 0  -0.626474064879544 -0.7266572613636506 0  0.2446828746617422 0.2867616783302419 0  0.1759429608742923 0.4776611759306416 0  -0.3468240303741654 -0.5260416435617549 0  -0.7465808808425306 0.4069574477998361 0  -0.7819962170660292 0.2802441065650652 0  -0.3742623214119594 -0.8547800509641984 0  0.1014498009713561 0.8506721983266377 0  0.4285217620918213 -0.5230190595570253 0  0.4091738370487775 -0.6256346204225141 0  0.78125 0.46875 0  0.90625 0.53125 0  -0.4791801348852565 0.2553992655702126 0  0.7843318610782772 -0.7086046956885941 0  0.8909728264971901 -0.7355183796514634 0  0.7041908166528879 -0.7830649143180282 0  0.7311821352
[...]
<PointData  Scalars="velocity-2"> 
<DataArray  type="Float64"  Name="velocity-2"  format="ascii">0.0000000000000000e+00  0.0000000000000000e+00  1.0000000000000000e+01  1.0000000000000000e+01  3.7005962170401787e+00  1.0000000000000000e+01  3.7001764376656268e+00  0.0000000000000000e+00  3.7006392087819715e+00  0.0000000000000000e+00  1.7063150719455431e+00  1.7064322726908050e+00  0.0000000000000000e+00  1.0000000000000000e+01  6.4369264346597257e+00  1.0000000000000000e+01  6.4371624243194372e+00  5.9152614459416828e+00  2.0082147278563607e+00  2.6410957609087067e+00  6.4377986224149746e+00  1.7562609815980397e+00  4.0447763388395890e+00  1.2675794884572460e+00  7.2690667325809279e+00  8.0637524073070654e+00  9.7582528182923300e-01  2.6410743471385079e+00  4.2012486281297230e+00  7.6304084709928333e+00  1.0881479717767752e+00  5.5000435235505547e+00  9.1939441561416269e-01  5.3095934945608860e+00  3.7951749533291510e+00  2.5661131183801538e+00  5.7291467713153033e+00  2.7489847595541761e+00  4.7798343741650804e+00  8.1492022167700888e+00  3.0653528150854457e+00  7.8550684935473916e+00  8.3944872916830116e-01  0.0000000000000000e+00  1.0000000000000000e+01  8.1490579327352783e+00  8.5982515362130618e-01  1.8469891963746248e+00  5.8518310986378745e+00  4.9505506382735360e+00  2.6408596604344292e+00  8.3953862941552160e-01  8.1486910999318756e+00  0.0000000000000000e+00  0.0000000000000000e+00  1.0000000000000000e+01  2.6413166777533079e+00  1.0000000000000000e+01  0.0000000000000000e+00  4.9509537714952900e+00  1.0000000000000000e+01  2.0542342519097794e+00  4.0050602898428806e+00  3.0157719007013402e+00  1.1714765822306605e+00  1.7314218076668479e+00  1.8025631331552352e+00  7.3710020198290387e+00  6.5451403766618368e+00  3.6903999686280837e+00  4.4242008421102748e+00  4.6914534178921086e+00  3.3223391056983131e+00  5.4669179724585226e-01  5.5813426966653057e-01  1.3741275718853427e+00  1.8985450391305483e+00  8.6037788940525086e+00  8.3755935835829742e+00  6.4962375107535939e+00  4.2985849923783439e+00  6.0820545195927112e-01  3.3536296627426263e+00  6.4921704895179859e+00  5.1831476060947939e+00  6.5154827288871164e+00  7.2690694057311349e+00  8.6282496818537595e+00  1.6360293964559356e+00  4.7343711720709525e-01  6.1964693346004573e-01  8.9430803053256351e+00  2.5672819380364813e+00  8.6895144037049583e+00  6.9862967292876688e+00  9.0209755067578747e+00  3.1508261549473069e+00  4.3737098929694257e-01  9.0255252507201806e+00  1.2674699744568807e+00  4.8639893995910226e+00  4.9255454610561751e+00  4.5422190047292599e+00  5.3688842436904052e+00  9.1026292456304636e-01  0.0000000000000000e+00  1.4202201119348608e+00  7.6041973647884742e+00  5.6629461231187124e+00  1.4537833429793394e+00  0.0000000000000000e+00  5.1768058577582488e-01  2.3907575959898413e+00  2.4856030442867332e+00  3.2254571453236269e+00  3.4736892179138819e+00  7.4135592235410179e+00  6.2123369157344879e+00  5.5237939903279019e+00  1.3322203268793318e+00  2.2827945179913418e+00  7.2687289495448679e+00  3.0038807125382734e+00  3.9167508236341515e+00  1.0000000000000000e+01  2.1301799921460467e+00  2.1526414136882508e+00  1.3455774440270845e+00  4.2978016807652377e+00  4.6888978957839518e+00  5.1289479001081348e+00  2.3371727925383041e+00  5.4942592109954091e+00  6.2701499403264505e+00  4.8885585081543885e+00  3.6789065684632396e+00  5.0218453917982864e-01  4.2848699095125937e+00  2.1549320210192233e+00  2.5433232934548253e+00  3.7225953060598451e+00  3.1509345618417339e+00  3.4312035317976157e+00  9.0651592477495697e+00  8.9126031908404659e+00  9.0652225710517857e+00  3.0461600701852305e+00  5.4477068714344163e+00  7.2004169547316288e-01  8.0761002504767134e+00  4.4651245706796994e+00  9.1031785454911862e-01  2.1621775222029620e+00  7.4298652758500170e+00  3.1318953968405894e+00  4.0513628467485372e+00  7.1980096373756952e+00  6.7979581415724004e+00  5.6633513086325502e+00  6.3268434537253269e+00  9.0942772957573546e+00  3.4352550414885150e+00  4.3036757869748117e+00  9.0209595827815594e+00  2.4803582649539226e+00  4.1814941342788792e-01  0.0000000000000000e+00  1.0000000000000000e+01  9.0650153011276675e+00  4.3846382539126644e-01  8.5666455156154320e-01  9.5841451456781523e-01  1.6140725303938570e+00  1.8053624620095874e+00  6.2682825310403558e+00  4.1816678784140393e-01  0.0000000000000000e+00  7.7405758072556372e+00  2.1650963439641608e+00  2.8533807923470236e+00  1.2919741213325269e+00  1.9798692796659534e+00  3.3231465748177258e+00  3.7185182156060961e+00  9.0642566616529834e+00  2.1618531426169754e+00  1.2674440154366284e+00  1.0000000000000000e+01  3.1510081755980135e+00  1.0000000000000000e+01  1.0000000000000000e+01  1.0000000000000000e+01  7.2686759594280765e+00  4.2978604368972642e+00  1.2674653026251768e+00  0.0000000000000000e+00  0.0000000000000000e+00  0.0000000000000000e+00  0.0000000000000000e+00  1.0000000000000000e+01  1.0000000000000000e+01  7.3210609431168683e+00  3.4129110858303640e+00  4.1178891417986052e-01  9.0418754561874088e+00  1.0547019538587947e+00  1.5773381735423593e+00  1.0768005140500576e+00  9.8370023700075715e-01  4.0875550182747339e-01  2.1212324492838421e+00  7.1733486764347196e+00  5.7522844804341871e+00  8.2254664889189986e+00  5.5612977279581415e+00  1.4626542179292672e+00  7.2773667234932455e+00  4.6989518587380026e+00  7.1823318227207205e+00  5.8237076464899120e+00  1.3877030426510610e+00  7.9890573690315536e+00  6.5817194850585663e+00  1.6702814150285881e+00  6.5057784611198688e+00  2.2168670761677309e+00  4.6659909180275099e+00  1.3240325864739213e+00  2.1396517088121438e+00  2.4676270811855612e+00  6.4766031893623550e+00  3.2885100604370296e+00  8.2574474132468314e+00  8.2423011269388748e+00  2.5754405018239117e+00  5.5961581100474680e+00  2.7048759545610275e+00  2.9557762495894755e+00  4.1755116848871499e+00  5.2967623412429861e+00  8.3692149933176996e+00  5.8668129923203161e+00  3.0108713946287566e+00  3.5889080164875026e-01  4.8632545123114204e+00  4.0856805360792148e+00  3.9163507465815912e+00  1.9309970338067792e+00  2.8784190527210103e+00  5.2322594908894295e+00  2.7821280815079752e+00  7.1454728882181868e+00  3.7994410778261027e+00  6.7484259418169206e+00  6.0507827295177163e+00  1.7306563475628469e+00  4.9593345733902687e+00  9.1032340708152282e-01  2.7859070829289040e-01  7.2386253456644161e+00  1.7605005672254013e+00  5.1483745825649052e+00  3.5258727634189113e-01  5.8399190569895394e+00  3.8920855905836333e+00  4.6846398605038182e+00  4.2084969032232005e+00  1.7765412175778765e+00  4.2153246756773468e+00  2.8739242205455544e+00  3.3865226004906575e+00  9.9626288632433413e-01  9.0351579741498200e-01  6.5483411229438131e+00  5.9534676736881904e+00  1.4864977640591797e+00  1.2624644707415404e+00  4.9219487279201495e+00  4.5575128463219734e+00  2.2677105864776261e+00  8.5111391965609928e-01  7.3113921898935108e-01  2.1648811784991091e+00  4.1817289053104689e+00  5.9881084700672034e+00  5.8693007409048130e+00  8.3755730706254194e+00  9.2978242469855257e+00  1.7810839980043165e+00  8.3978608884645372e+00  9.1840154249148558e+00  7.8217233278942127e+00  8.0140813142584317e+00  2.7394212800071416e-01  3.1140779888632725e-01  7.2358133761252708e-01  2.7054673533256794e+00  6.7135207238672001e-01  3.4232780508764932e-01  3.0350992888350603e-01  5.8313748345117689e-01  5.7713685428648454e-01  9.1970951373487217e+00  2.4957324923070972e+00  1.4181952198358903e+00  5.6853297401513130e+00  3.3600969890757160e+00  3.8041871275412653e+00  2.9750857882751154e+00  7.7673620518953490e-01  5.3055563882163961e+00  4.2779483019826552e+00  2.1200588221056980e+00  2.3349005071912576e+00  2.6251847551831320e-01  6.8467251443738792e+00  9.2164053322558797e+00  9.3013126905903309e+00  9.0680854956813786e+00  1.6026509694589850e+00  1.8061840212096913e+00  1.3716340805092160e+00  4.9010135712828129e+00  8.1167089629395566e+00  2.3408082149885532e+00  5.3490547078885946e+00  4.8635097875885647e+00  3.0049198828443089e+00  6.2694081201689080e+00  2.9268727833309272e+00  1.2573412854699892e+00  8.0369830364532184e+00  2.3982850957849857e+00  8.3672058578356534e+00  5.7656320360591129e-01  9.3032998106990235e+00  2.2406653973193719e-01  1.6542640537738547e+00  7.5748206125102211e+00  7.1087540031197083e+00  7.0232856686754079e+00  3.4202785347926628e+00  7.1174223713233786e-01  2.1847402152271064e-01  8.5247549214764895e+00  9.5115168867568300e+00  2.4158270398884865e+00  5.3000469082165669e+00  6.6198338248536155e+00  6.0435864957678884e+00  9.5112384579903182e+00  8.6036339679648162e+00  5.1412188000441823e+00  4.3186785213599137e+00  1.9319040052868781e+00  8.1652932368824782e-01  6.9622822339058499e-01  1.1261008761939735e+00  9.5108446731992995e+00  2.0938100128254303e-01  2.0961570272610933e-01  9.5115248594813213e+00  9.5090944819044054e+00  3.9929224785052799e+00  2.6920691398379443e-01  9.5085914891497492e+00  7.8617566579055129e+00  6.9816455484878439e+00  4.2406281298877042e+00  4.6153409698144392e+00  7.7038625215025913e+00  5.7261401764833382e+00  5.4629184405081803e+00  3.7093396829337317e+00  4.1005871321756731e+00  2.1845304513012936e-01  1.0555414175463966e+00  7.8145648404610641e+00  2.6490595473948315e+00  3.0426548988444080e+00  1.7982870743716790e+00  3.6771919583020418e+00  4.6176082782951804e+00  1.6818484946795207e+00  2.4953003278413948e+00  2.1611069668905492e+00  2.7524909484624418e+00  6.9522980619250232e+00  6.0654576169591570e+00  8.6741070888634653e+00  3.7276582661514621e+00  1.6607518988756256e+00  6.4398548763251895e-01  2.4611123633038554e+00  8.0261054445390254e+00  8.7815159391233522e+00  2.7860805399729732e-01  2.4738481083202321e-01  6.8698090269265659e+00  7.7671528652491322e+00  2.7683831362370346e+00  7.6788225713330212e+00  3.1478622036317239e+00  5.0217337377903695e+00  6.7291571195133209e+00  1.9549551098793225e+00  1.5251532288222878e+00  3.4916791934628630e+00  3.6519324895572054e+00  3.4108439700009443e+00  4.3845174352248444e+00  1.5175510890852435e+00  1.2060934490744624e+00  1.3274734321624129e+00  1.2265125419237415e+00  1.5469851343128624e+00  1.4851618936149826e+00  3.3645145194643544e+00  3.6869028589405048e+00  2.8950738726156300e+00  6.4499211208429559e+00  4.9771989635610732e+00  1.1303776270900723e+00  1.5261880378607713e+00  8.1322618004860310e+00  3.1041695809534136e+00  5.8930426140325904e+00  6.7167904170221675e+00  6.0303166442485736e+00  1.9318922379834069e+00  4.7592148321510424e+00  2.4481220312285727e+00  2.4662820672711252e+00  4.4579062408918180e+00  3.7390474444565811e+00  4.2746241693333182e+00  4.7128201022071483e+00  3.3456708655934029e+00  2.1734566216254718e+00  2.0463477557303431e+00  8.6620501598527682e+00  9.5281852366843864e+00  5.3251577722372403e+00  2.9429737716447119e-01  3.0476284285845718e+00  6.1422741364900268e+00  2.3568823008131918e+00  8.7089234973588301e+00  1.9666497767740605e+00  5.2292439406261844e+00  2.7392050827248768e+00  1.8957390779611956e+00  9.4698074721425876e+00  3.4482138098786791e-01  4.4155221643900475e+00  7.2673092331116687e+00  9.0927483254049140e+00  2.0888086652000748e-01  8.4219900285448759e+00  2.8919161343383490e+00  2.3199039498382570e+00  1.0788325626599531e+00  2.6332300008991871e-01  5.0312151753382581e+00  6.9712515517708351e-01  1.1313847115267188e+00  1.1538962352761888e+00  3.8605949286510759e+00  3.8686498587490021e+00  7.7031227272334535e+00  7.5274172109374566e+00  4.9509974337407323e+00  1.0000000000000000e+01  1.9804571178525228e+00  6.3806114344737830e-01  6.7597150937816917e+00  2.5096461251813915e+00  2.1602492557576420e+00  3.3885500163416680e+00  1.2432846056029807e+00  1.0523928574839063e+00  6.9380921363441832e+00  7.9373284983155559e+00  1.5684358889450263e+00  1.5029409323600784e+00  5.2996328692012362e+00  2.1050836146423726e+00  4.4932452584483036e+00  1.9953622845581576e+00  3.0712088074028698e+00  2.8125018352047366e+00  3.3591305218557177e+00  1.0000000000000000e+01  8.9690930514428828e+00  6.6437371835194226e+00  6.1950568059714444e+00  4.8864991705044192e-01  7.7256276958993766e+00  7.0169241660966843e+00  5.1901527976217556e+00  3.5787545668078105e+00  1.0523204443682868e+00  9.5032626156775759e+00  2.9628266790744968e+00  2.6697163199373199e+00  9.4945234892015051e-01  6.2243501098962362e-01  6.0937392641978105e+00  7.2199718267755069e+00  2.8393203679093406e+00  3.8630005249465076e+00  4.4925078820061719e+00  4.5529572237122551e+00  4.2650480007886564e+00  1.2470700808902122e+00  6.9877002876219567e+00  0.0000000000000000e+00  1.1596172554080206e+00  1.4100903252919166e+00  3.2295348362443477e+00  1.9792994062886951e+00  2.3354788997917479e+00  8.7931499562981710e+00  5.8788291530650216e+00  6.1811549811718125e+00  3.3348865414698805e+00  2.3644588944857156e-01  7.6689488696646757e+00  3.1453268121488853e+00  3.5966501751736035e+00  3.6203994869238048e+00  1.0000000000000000e+01  7.4503203599760974e+00  6.8991070963628021e+00  7.5654110744226903e+00  2.2393087736243245e+00  9.5313859956572973e+00  8.8338375457461318e+00  9.4543644561634324e+00  0.0000000000000000e+00  9.5313132487561525e+00  3.1772193965728484e+00  8.0730655475542323e-01  1.0508013352019849e+00  5.3348560411884041e+00  5.3587657473470776e+00  5.6384203628260110e+00  5.5377366417637921e+00  9.4808819584661084e+00  8.6282640646008080e+00  4.5530555836115907e+00  4.1284408431805621e+00  5.2180507463731862e-01  2.7411024687425631e+00  4.0499990900316263e+00  2.5811635309334551e+00  1.7718107693196730e+00  7.5885074159857457e-01  1.1042888802578048e+00  7.3370952097438513e-01  2.3677840488077897e+00  7.7171707198934358e+00  1.3062748090771774e+00  5.8759911823207602e+00  0.0000000000000000e+00  1.5529022842112457e+00  9.4946082944047507e+00  4.1200197093922492e-01  5.5805589288234927e+00  3.9480633005312518e+00  2.1907470802739031e+00  4.7489212396587197e+00  3.9660471931389076e+00  3.4318634108161636e+00  3.6993184222391480e+00  6.1324026043165558e+00  9.5092658082014800e+00  6.6172590027116340e-01  8.5446624473131809e+00  4.0283791061612186e+00  9.5209212858223218e+00  4.4276403488145899e+00  5.4987421378458867e+00  3.7226832880911580e+00  1.4601798065548448e+00  3.2975262584396403e+00  1.0000000000000000e+01  4.0627699160448056e+00  7.4586817522309612e-01  5.2327224045370873e+00  9.3651771721817012e-01  3.1463582645519454e+00  8.5319462350443587e+00  6.4401595159944849e+00  8.3190749535575825e-01  7.6191979428564560e-01  2.3099410561165841e+00  6.2389001656400378e-01  1.4506500032499396e+00  1.7168658235106973e+00  1.5733841116250489e+00  1.8944392655638380e+00  1.8172501031278157e+00  9.5091286176961987e+00  1.0000000000000000e+01  9.2539776724297218e-01  4.0741218735706779e+00  7.2785900483963069e+00  6.3138645835763230e+00  5.9491172718261343e+00  6.6986521051229619e+00  8.8722527214847506e+00  2.8911689151435604e+00  8.1974867685238824e+00  2.6826787456879315e+00  2.8831106755900593e+00  4.9612481230920018e+00  8.7057378449727416e+00  4.3658866443844317e+00  2.2001865248707260e+00  7.5196280466039767e+00  3.1334520432505277e+00  4.5248424420527522e+00  7.5727220752438269e+00  7.3850879118026329e+00  3.9921903163526564e+00  0.0000000000000000e+00  8.7320118565769036e+00  0.0000000000000000e+00  7.2483105208762435e+00  3.4214592736698854e+00  1.9367327764992959e+00  1.9527431196724951e+00  1.9841579638503957e+00  5.5409001585228248e+00  3.0940730770665335e+00  6.8462299904703068e+00  8.7674639501168761e-01  2.7995494355437134e+00  7.8782650993125234e+00  6.5454068113060320e+00  9.1019505313200877e-01  3.1048839069379768e+00  3.1471847427590056e+00  3.9440067718564591e+00  8.3689094009132940e+00  6.9405209775540273e+00  5.6662405463716148e+00  5.0555842986924517e+00  7.7927968061498225e+00  9.0454193253935884e+00  9.5307732600169341e+00  6.4329477734531562e+00  5.0225136291581340e-01  3.7004961854476619e+00  2.2950640453305116e-01  4.2959736750037694e+00  9.5309193876311493e+00  1.0000000000000000e+01  1.0000000000000000e+01  8.6038034085598891e+00  2.3981675738465693e+00  7.7030435595612277e+00  0.0000000000000000e+00  2.0889842809344844e-01  3.9924277533967558e+00  0.0000000000000000e+00  1.0000000000000000e+01  1.9317084925579029e+00  8.6035692341818670e+00  1.0000000000000000e+01  6.0424990790631323e+00  5.2990458125513822e+00  1.0000000000000000e+01  1.0000000000000000e+01  1.0000000000000000e+01  0.0000000000000000e+00  0.0000000000000000e+00  0.0000000000000000e+00  3.4201885524078364e+00  0.0000000000000000e+00  2.3978632428443554e+00  6.8462684108521703e+00  0.0000000000000000e+00  6.2820236499090154e-01  6.2818590197899671e-01  0.0000000000000000e+00  1.4852926266478399e+00  4.6167220734353736e+00  0.0000000000000000e+00  6.0430743036770549e+00  1.0000000000000000e+01  1.0000000000000000e+01  9.5313560220977269e+00  0.0000000000000000e+00  4.6166247792538488e+00  0.0000000000000000e+00  3.4206145516360986e+00  1.0000000000000000e+01  1.0000000000000000e+01  1.5923050900530025e+00  6.5510866081097880e+00  1.8147669140173736e-01  4.8911521174969392e+00  4.5119234065094043e+00  7.1148059481057304e+00  2.7624975783430115e+00  1.4937166475896841e+00  1.6634623219635301e+00  1.3323807221483621e+00  8.5259294456870816e+00  1.1596507433474517e+00  1.9695345929448574e-01  9.8578478050149343e-01  7.9236640611342146e+00  4.2425434304372811e-01  5.2883125831358857e-01  2.0544255338190756e-01  4.2719517000558965e-01  3.1347025427763597e-01  4.7058232662556576e-01  4.3755801819362750e-01  8.5711418987299819e+00  8.0749129432617615e+00  1.5855989000638460e+00  4.3292747695353890e+00  9.4825509824038559e+00  6.1737654122042185e-01  5.1487634441064722e+00  3.0313976247103942e+00  9.3432966078068891e-01  2.7873544986625700e+00  1.9977507744106295e+00  2.5212802093913376e+00  6.6576628395133213e+00  8.8000640055244705e+00  1.4487603971860605e+00  8.3024919745704260e+00  7.8992618745780003e+00  5.5310220110571660e+00  2.4170980882501953e+00  3.5295135594087119e+00  5.8270282100862856e+00  1.8066248715833546e+00  4.0831868505329743e+00  8.5278203691938188e+00  1.9821665551681014e+00  4.9827347262473278e+00  7.4644049569520954e+00  6.7645688270007254e+00  7.3852400852245692e+00  2.0131153371183033e-01  1.7890208563313190e+00  1.5759226268883815e+00  1.3761419454876160e+00  8.9308715305495756e-01  1.1335956770673714e+00  2.9458239691856369e+00  3.9191294124667482e+00  3.5860962688322844e+00  6.8129790950486990e+00  9.0697477363203394e+00  8.7403273571040483e+00  6.3906628004048702e+00  6.1718734223981020e+00  2.8213250823163669e+00  3.9469433170819621e+00  8.1675459986984422e-01  9.4383026666966718e-01  1.2562387230339580e+00  1.1252829554563393e+00  1.3584845629200413e+00  1.2878612272525070e+00  1.1733152703667857e+00  5.1092072883445780e+00  5.0226092069271173e+00  2.7359204715922942e+00  4.5862093804202564e+00  8.4772345507114775e+00  2.3499659739288918e+00  2.0180606662274387e+00  9.5826912349266777e+00  7.9176535667779593e+00  8.1758208231636349e+00  4.1200811984983652e+00  6.1277627840419857e-01  5.1864483182493624e+00  3.5632063182666465e+00  2.3137537224830580e+00  5.8021113228034356e+00  6.8798551508799397e+00  1.1938348097123377e+00  7.6803893259994060e+00  7.3379676825590359e+00  6.8007421781857094e+00  9.5134423282809131e+00  8.1603334686046836e+00  8.3193584631979736e+00  8.7582052642472590e+00  7.7578349557703703e+00  2.1503094810285832e+00  7.6663253380393426e-01  1.1230201366985706e+00  9.5288906675368352e+00  2.2210330363539375e+00  1.1319798635014842e+00  5.2246947911347750e+00  5.8632711455738056e+00  3.2291768015492619e+00  2.5595092138417863e+00  3.4916967127635776e+00  1.5263191889283059e+00  1.6194744339170530e+00  1.4721722222453337e+00  1.6662436900775690e-01  2.1019440235243376e+00  7.3729502137057468e+00  6.8745168520991715e+00  9.6649814064178030e-01  8.8509743013228324e+00  6.9413221178695848e+00  7.7799983467276865e+00  6.2556241671184551e+00  4.9650624303931492e+00  1.1578869341891336e+00  9.8904633349535587e-01  7.8184369988276203e-01  8.4075277079597344e-01  4.6181148329225996e+00  6.73536