<?xml version="1.0"?>
<VTKFile type="UnstructuredGrid"  version="0.1"  >
<UnstructuredGrid>
<Piece  NumberOfPoints="2513" NumberOfCells="4852">
<Points>
<DataArray  type="Float64"  NumberOfComponents="3"  format="ascii">-1 1 0  -1 -1 0  1 -1 0  1 1 0  0 -1 0  1 0 0  0 1 0  -1 0 0  0 0 0  -1 -0.5 0  -0.5 -1 0  -0.5 1 0  -1 0.5 0  1 -0.5 0  0.5 -1 0  1 0.5 0  0.5 1 0  0.4166666666666666 -0.4166666666666667 0  -0.4166666666666667 0.4166666666666667 0  -0.25 -0.5 0  0.5 0.25 0  -0.4861111111111112 -0.06944444444444445 0  0.0732758620689655 0.507183908045977 0  -0.625 -0.625 0  0.625 0.625 0  0.7380952380952381 -0.25 0  -0.7099116161616161 0.2105429292929293 0  -0.25 0.7380952380952381 0  0.105392156862745 -0.6348039215686275 0  0.6770833333333334 -0.6770833333333333 0  -0.6770833333333334 0.6770833333333334 0  0.3472222222222222 -0.06944444444444446 0  -0.7264957264957265 -0.3044871794871795 0  0.3141940982507127 0.7297313660835709 0  0.02049587951122483 -0.3227479397556124 0  -0.2690972222222223 0.1475694444444444 0  0.3859500089908372 -0.7274430156831472 0  -0.2228477945123298 -0.1761765495248019 0  0.2182539682539683 0.1884920634920635 0  0.75 0.375 0  -0.145442219440968 -0.7602211097204841 0  0.7088913690476191 0.0427827380952381 0  -0.75 -1 0  -1 -0.75 0  1 0.75 0  0.75 1 0  -0.7439982703698937 -0.04614153195464455 0  -0.4609235096577606 -0.3356498099556895 0  0.4063134471431929 0.4895621842856023 0  0.25 -1 0  -0.25 -1 0  -0.75 1 0  0.75 -1 0  -1 -0.25 0  -1 0.25 0  1 -0.25 0  -0.25 1 0  1 -0.75 0  -1 0.75 0  0.25 1 0  1 0.25 0  -0.4041423272138783 -0.7597141090712928 0  0.06500839607911253 0.7578103030529481 0  -0.1572801182352047 0.3838997021864289 0  -0.6528005242053915 0.4409494757946086 0  -0.4930160984848485 0.1544744318181818 0  -0.4732142857142858 0.7752976190476191 0  0.6398809523809523 -0.4538690476190476 0  0.5166054117396399 -0.2161233620965164 0  -0.002273787244753427 0.2232363985975174 0  0.1500564496765022 -0.1524955293952667 0  0.2016720420046758 -0.4410343282803009 0  -0.08495178036419618 0.6274139771124571 0  -0.8367311471133162 0.3642591720794645 0  -0.8333333333333334 -0.625 0  -0.594323836800685 -0.8231079456002283 0  -0.4466957714776065 -0.5349126855671806 0  0.8125 0.5625 0  0.78125 0.78125 0  0.5091392650016769 0.7947130883338923 0  0.125 -0.8382681931833136 0  -0.8184523809523809 -0.8184523809523809 0  -0.07781530426104531 -0.5819319697006881 0  0.5085055196703295 0.04967610411902112 0  0.2918471072074933 -0.276017202318847 0  0.5120763537765269 -0.5898771553229597 0  0.625 -0.8585349462365591 0  0.8158532234335381 -0.8158532234335381 0  -0.5198088446315396 0.5739411553684605 0  -0.8585349462365591 0.625 0  -0.8150493805516597 0.8156205699829586 0  0.8585349462365591 -0.625 0  -0.2688268348649726 0.5439331383603209 0  0.8242100426758139 -0.4436043596336612 0  0.5833756314287952 0.4479378157143976 0  0.8690476190476191 -0.125 0  -0.125 0.8690476190476191 0  -0.8692745600729823 0.125 0  0.8696725120759167 0.125 0  -0.625 0.8711516477451908 0  0.2339522463269718 0.3879558377955778 0  0.2453709502295031 0.5655822922838026 0  0.1730610651637797 0.02021709580868947 0  0.3245402594056757 -0.5644672020485209 0  -0.7291666666666666 -0.4816595441595442 0  -1 -0.375 0  -0.5811140848639904 -0.2127276307675001 0  0.673332592838314 0.2158348143233718 0  0.375 1 0  -0.5714768890989919 0.2985103444040069 0  -1 -0.125 0  -0.8453692574786325 -0.1875 0  -0.3144549134065865 -0.02408675326008025 0  -0.2898414972096258 -0.3336092734780093 0  -0.1075052092206287 -0.4224330421314983 0  -0.05043970703604117 -0.1652278959397459 0  0.6459672950297897 -0.1113415301525317 0  0.4645210271029513 0.6398480556579343 0  0.3512863754411909 0.0937979496253573 0  -0.6063160985568274 0.03891469652249891 0  -0.3428819444444445 0.8690476190476191 0  0.625 1 0  -0.1602164796159982 0.02697860906625157 0  0.04648110064133829 -0.4808416424239687 0  1 0.875 0  -0.3836102479201657 0.6484936449177356 0  -0.3776011723096096 0.263078478984336 0  -0.6024978259969829 -0.3949628096211138 0  0.125 1 0  0.2010781308272777 0.8456221018461906 0  0.2822509696388829 -0.845902544691141 0  -0.3285533674953515 -0.6289773550938936 0  0.3461306793221754 0.278777492464833 0  0.4737475672408696 -0.8508448959534423 0  0.2384632828836344 -0.7029523187242811 0  -0.004777287059791593 0.3759269695907358 0  -0.8499735021850066 -0.3912320205328522 0  0.1222536293721587 0.2963971539625205 0  -0.3769456520999688 -0.203572526805711 0  -0.2749617205755651 -0.8464290792698902 0  0.004805888512766143 -0.747174355248311 0  -0.125 -1 0  -0.06001061822252458 -0.8724007765244854 0  0.875 0.4375 0  0.854421179608893 0.271342359217786 0  0.875 1 0  -0.1499861095763589 0.2358309656934888 0  0.3381943639137225 0.8663061796405532 0  -0.7853090110442228 0.4998412775277108 0  0.7398165998560814 -0.5535192694951373 0  0.1580042122341573 -0.3100246140259917 0  -0.7291666666666667 -0.7142857142857142 0  -0.375 -1 0  0.6483368386154684 0.8514905990110488 0  -0.1295370103291928 -0.2826118305021242 0  0.07458201853700455 0.1123894386563915 0  0.6146465857036327 -0.3161203659316075 0  0.5551898493894731 -0.740296118159085 0  0.375 -1 0  0.482702798370208 -0.084133350091034 0  0.87890625 0.68359375 0  -0.05917195534525846 0.4971092425697621 0  0.1260710309213975 0.6343750312956699 0  0.8690476190476191 -0.3077066815262848 0  -0.2912010232560567 0.3668168386732139 0  -0.875 1 0  -1 0.875 0  1 -0.875 0  0.875 -1 0  -0.8689564281364567 -0.006189266075306407 0  -0.7449425635110547 0.08458938160051771 0  -0.7150266761936593 -0.1739444581417552 0  -0.5260034831318311 -0.711099823962112 0  -0.4724626808827322 -0.871722230709409 0  0.4734436795977052 0.377714794132168 0  -0.875 -1 0  -1 -0.875 0  0.6927189078571988 0.5156567235715964 0  -0.3742497615796874 -0.4296005251260107 0  -0.1969436423297711 -0.6387157229772615 0  -0.6179496409766825 -0.08933356056510935 0  -0.424405057115988 0.04452428810878029 0  -0.08479048335844169 0.1279607007132633 0  0.003830300099055113 0.8712085230656206 0  0.8748778838820267 -1.379218479898026e-05 0  -0.375 1 0  -0.625 1 0  1 0.125 0  -0.125 1 0  1 -0.375 0  1 -0.125 0  1 -0.625 0  0.625 -1 0  0.125 -1 0  -0.625 -1 0  -1 -0.625 0  -1 0.125 0  -1 0.375 0  -1 0.625 0  1 0.375 0  1 0.625 0  0.6325660748712082 0.3335187599557389 0  -0.06420945895056573 0.7549874027425891 0  -0.8769015540914771 0.2478802253893416 0  0.871875 0.871875 0  -0.6868091492840067 0.3270978624973681 0  -0.5363597469565949 0.412994850055505 0  -0.6803734992638302 0.5574295000651103 0  -0.7076253581162534 -0.8803439094224437 0  -0.8778089002295137 -0.5106896447504627 0  -0.3860184984222981 0.530566778071246 0  0.6109900617121508 0.1128453077697081 0  0.3896945134930274 -0.1915382873255086 0  0.7605656944697778 -0.06822134873122943 0  0.3576151269893478 0.5948388411612135 0  -0.5689902680792265 -0.5143596830118065 0  0.6262446286847614 -0.5735657901943212 0  0.2030558252325225 -0.5625263842513452 0  0.6123273142928579 0.7407533260723429 0  0.4016460890123554 -0.3042863223111857 0  -0.59039693199147 0.7578418819188018 0  0.7276932493917544 -0.3705808024528924 0  0.5222536818742854 -0.4713886230400014 0  -0.5101986527137737 0.8848365765607674 0  0.510560172809238 0.5356013299918891 0  -0.3603569195756083 0.75823710606415 0  0.1967279277813232 0.728226870058472 0  -0.6086880986371127 0.1545624071548516 0  -0.38105366729386 0.1511189987807864 0  -0.2944659463671584 -0.7359061804869591 0  0.5060729154966499 -0.3475227845833823 0  -0.09281616240412746 -0.06197858250969457 0  0.7649739583333334 0.6673177083333334 0  0.7628906249999999 0.890234375 0  -0.2666864184909611 0.2585504071132311 0  0.3635064892129658 0.3878003602709461 0  -0.2339409722222222 0.8901937905844155 0  -0.1718792125974916 -0.8957733325456778 0  0.1001768566329531 0.4023510017391879 0  0.3120260172693757 -0.4540546875576884 0  0.7804062804433681 0.1896628610854537 0  0.4087715451998049 0.187961780041608 0  -0.1584963477271457 0.5451611892421655 0  -0.8926817849258324 0.463022006336401 0  0.2338091473445219 -0.07576267331277289 0  0.08171112182813692 -0.2349087687359925 0  0.04635385178956847 -0.1044635073718474 0  -0.4377391632114205 -0.6448874471423088 0  -0.1907678351227189 0.6480215912813945 0  0.300605946475244 0.4741444604171038 0  -0.2145033720757486 -0.06751709909419711 0  0.6069191921170397 -0.005492331448357812 0  0.0214718770761248 0.6032397936031719 0  0.5476675683364878 0.8992752415326501 0  0.4387475014316537 0.9093708953002239 0  -0.4932997685306436 -0.4381009159993523 0  0.2515197695339056 -0.1791673369138964 0  -0.7291666666666667 -0.6088789682539681 0  -0.9166666666666667 -0.6875 0  0.620579540363709 -0.2122431523583302 0  -0.484950136419973 0.6719440339397442 0  0.2857044415400258 0.0137589173127316 0  -0.8945708364098356 -0.288306105327986 0  0.4043102720140535 0.7842914560451557 0  0.04123256238752064 -0.9026968245801402 0  0.2003676884403109 -0.9091888601740487 0  0.1068775558538842 -0.7373377130403223 0  -0.4804566783514427 -0.1763307203045643 0  0.108286342087769 -0.3993789328997278 0  -0.191883080105361 -0.3640821726430649 0  -0.07025064492006244 0.2984876656890053 0  -0.7039324641409584 0.788312126296613 0  -0.7311286585775438 0.8932502354831682 0  0.5171409396884947 0.1503852691889257 0  0.4229392823658633 -0.003216522184234835 0  -0.5621736087218259 -0.919558629836806 0  -0.626474064879544 -0.7266572613636506 0  0.2446828746617422 0.2867616783302419 0  0.1759429608742923 0.4776611759306416 0  -0.3468240303741654 -0.5260416435617549 0  -0.7465808808425306 0.4069574477998361 0  -0.7819962170660292 0.2802441065650652 0  -0.3742623214119594 -0.8547800509641984 0  0.1014498009713561 0.8506721983266377 0  0.4285217620918213 -0.5230190595570253 0  0.4091738370487775 -0.6256346204225141 0  0.78125 0.46875 0  0.90625 0.53125 0  -0.4791801348852565 0.2553992655702126 0  0.7843318610782772 -0.7086046956885941 0  0.8909728264971901 -0.7355183796514634 0  0.7041908166528879 -0.7830649143180282 0  0.7311821352
[...]
<PointData  Scalars="velocity-2"> 
<DataArray  type="Float64"  Name="velocity-2"  format="ascii">0.0000000000000000e+00  0.0000000000000000e+00  1.0000000000000000e+01  1.0000000000000000e+01  8.6489090557392423e+00  1.0000000000000000e+01  8.6505388810921549e+00  0.0000000000000000e+00  8.6493272978830440e+00  0.0000000000000000e+00  6.1019710032247172e+00  6.1015366225048471e+00  0.0000000000000000e+00  1.0000000000000000e+01  9.4143620929883465e+00  1.0000000000000000e+01  9.4145680215133556e+00  9.3136774338995849e+00  6.7707364703804060e+00  7.7835767540123069e+00  9.4144329506019098e+00  6.2187248808066773e+00  8.8067194163961133e+00  4.8709589040300898e+00  9.5619649831287568e+00  9.6943804321165636e+00  3.8968073656044022e+00  7.7839069296865224e+00  8.8670611873174501e+00  9.6232260868989989e+00  4.2852492490437752e+00  9.2267033323040675e+00  3.6958916154438151e+00  9.1841468840946021e+00  8.6961061432225151e+00  7.6892627430939822e+00  9.2755956638697299e+00  7.9103992211781842e+00  9.0510589242860053e+00  9.7082449369918606e+00  8.2217087984149551e+00  9.6604159652240416e+00  3.4037320585027535e+00  0.0000000000000000e+00  1.0000000000000000e+01  9.7084044689701443e+00  3.4784216911383439e+00  6.4291206898336695e+00  9.3012710870798649e+00  9.0969678707596007e+00  7.7855017009356651e+00  3.4010308414920933e+00  9.7083317347696987e+00  0.0000000000000000e+00  0.0000000000000000e+00  1.0000000000000000e+01  7.7824990360903419e+00  1.0000000000000000e+01  0.0000000000000000e+00  9.0967236997773995e+00  1.0000000000000000e+01  6.8627517537839626e+00  8.7903488389396767e+00  8.1801753976498777e+00  4.5643032986647532e+00  6.1612471469574785e+00  6.3277273248560819e+00  9.5795920446953158e+00  9.4340159111790847e+00  8.6433354759877492e+00  8.9452690833401292e+00  9.0268007054935975e+00  8.4223236162505355e+00  2.2716779180453734e+00  2.3181100256347151e+00  5.1952920576070722e+00  6.5426253102398189e+00  9.7813271836962308e+00  9.7448824549446691e+00  9.4253002466644453e+00  8.9015347489573422e+00  2.5165120678255883e+00  8.4423425750964611e+00  9.4243434273249580e+00  9.1542163475204461e+00  9.4286504551207599e+00  9.5622692991101363e+00  9.7852664861557788e+00  5.9219966144612179e+00  1.9764135129765406e+00  2.5614199661328247e+00  9.8350283679190902e+00  7.6899942858127304e+00  9.7950748864840680e+00  9.5131332574295957e+00  9.8473732584400278e+00  8.2947930411201174e+00  1.8300249064030683e+00  9.8479466177770423e+00  4.8711206999158874e+00  9.0741286998373329e+00  9.0907047117623137e+00  8.9826161277111272e+00  9.1972596714859147e+00  3.6618345700398374e+00  0.0000000000000000e+00  5.3310015944460423e+00  9.6187398103853905e+00  9.2624067674029007e+00  5.4286028876401442e+00  0.0000000000000000e+00  2.1549986663336265e+00  7.4422398541179700e+00  7.5796378368270600e+00  8.3515059337672994e+00  8.5204062255953890e+00  9.5868990230973594e+00  9.3715390210659351e+00  9.2321740134214227e+00  5.0725496988683840e+00  7.2718386643651591e+00  9.5621638298339313e+00  8.1679009185481277e+00  8.7526692975318792e+00  1.0000000000000000e+01  7.0069811611476212e+00  7.0465200714940153e+00  5.1106679011201841e+00  8.9024877300960714e+00  9.0251489965854219e+00  9.1415783234173560e+00  7.3590364306517602e+00  9.2249018946965933e+00  9.3830492450702465e+00  9.0803879803367344e+00  8.6374977598579914e+00  2.0927579478707470e+00  8.8971638041947401e+00  7.0525273238202564e+00  7.6578679828674376e+00  8.6605023602496622e+00  8.2945071592911486e+00  8.4949253134931801e+00  9.8541394784601426e+00  9.8302937870037077e+00  9.8543758704773374e+00  8.2064461641766719e+00  9.2150762381507718e+00  2.9518170731270761e+00  9.6964969754768102e+00  8.9577850453703611e+00  3.6624546786596697e+00  7.0665462263945953e+00  9.5895817655121167e+00  8.2785050581067861e+00  8.8085634134424975e+00  9.5497919878592157e+00  9.4797881358721785e+00  9.2619121235365078e+00  9.3935588064966069e+00  9.8587206685318680e+00  8.4959902535772045e+00  8.9041357944933139e+00  9.8472216050913079e+00  7.5716889293178173e+00  1.7522020202744633e+00  0.0000000000000000e+00  1.0000000000000000e+01  9.8543771094634476e+00  1.8337842331127479e+00  3.4652474990939961e+00  3.8348811603326087e+00  5.8653442032371501e+00  6.3327699049307977e+00  9.3826127914168183e+00  1.7521331970940226e+00  0.0000000000000000e+00  9.6414730664846164e+00  7.0694875825587555e+00  8.0224915911093682e+00  4.9459775946923603e+00  6.7138207495330207e+00  8.4223752510101484e+00  8.6572843263771198e+00  9.8539863215530801e+00  7.0691817227230489e+00  4.8710465927687565e+00  1.0000000000000000e+01  8.2940869768203616e+00  1.0000000000000000e+01  1.0000000000000000e+01  1.0000000000000000e+01  9.5623033875034089e+00  8.9022675680007630e+00  4.8722408375774542e+00  0.0000000000000000e+00  0.0000000000000000e+00  0.0000000000000000e+00  0.0000000000000000e+00  1.0000000000000000e+01  1.0000000000000000e+01  9.5709078099892615e+00  8.4824614777188554e+00  1.7248935249090855e+00  9.8505755952671397e+00  4.1741074695578222e+00  5.7699282998311299e+00  4.2484925005139553e+00  3.9242355928465811e+00  1.7128990353110667e+00  6.9910112466840024e+00  9.5457006457621549e+00  9.2795424536561377e+00  9.7207086250483581e+00  9.2401262114383833e+00  5.4529327928933284e+00  9.5636561311958790e+00  9.0285918959086544e+00  9.5473863341402083e+00  9.2949827417662156e+00  5.2371148693627880e+00  9.6822551454697798e+00  9.4411543064977614e+00  6.0086483118738672e+00  9.4270794963810349e+00  7.1625756700390779e+00  9.0189237311423422e+00  5.0467102791581979e+00  7.0244956062713388e+00  7.5548057381073122e+00  9.4215279092353050e+00  8.3976809010333540e+00  9.7259192180432645e+00  9.7235361665888487e+00  7.7015717595397124e+00  9.2472234385377021e+00  7.8588284944059827e+00  8.1228547672635916e+00  8.8576682200064933e+00  9.1819246938695773e+00  9.7440122977141641e+00  9.3042969958169710e+00  8.1745132259542803e+00  1.5077674283981242e+00  9.0737774106078977e+00  8.8224429757997864e+00  8.7520437190315779e+00  6.6137916042178695e+00  8.0479833874973483e+00  9.1661789776035008e+00  7.9486119107474096e+00  9.5410074573666659e+00  8.6988857319396065e+00  9.4711468705876882e+00  9.3408287902864870e+00  6.1553931224656839e+00  9.0991860229213941e+00  3.6625487114456599e+00  1.1739788422907573e+00  9.5567896352089683e+00  6.2287621542510125e+00  9.1460398892174819e+00  1.4814859961073181e+00  9.2984104801484886e+00  8.7416148933658366e+00  9.0246854364024980e+00  8.8695433581341838e+00  6.2672669215470487e+00  8.8725688953079214e+00  8.0436611449710664e+00  8.4647659486608031e+00  3.9686096230023793e+00  3.6392228333546863e+00  9.4349377526590921e+00  9.3211819356184371e+00  5.5199465080894328e+00  4.8554847314036786e+00  9.0894436631990381e+00  8.9865942554599538e+00  7.2491011981840794e+00  3.4455301321041256e+00  2.9957492277634006e+00  7.0710541472784056e+00  8.8599995592071981e+00  9.3279354245096044e+00  9.3044111213418539e+00  9.7447636315870589e+00  9.8906075394142352e+00  6.2786133795890757e+00  9.7484825378370576e+00  9.8730696580510084e+00  9.6551012944183583e+00  9.6865741227608595e+00  1.1543320182098236e+00  1.3109101717001959e+00  2.9647149074701131e+00  7.8622719441927025e+00  2.7635062325205006e+00  1.4380355899639803e+00  1.2777932282070656e+00  2.4171176252988902e+00  2.3933032909194978e+00  9.8750232317452440e+00  7.5942211218183058e+00  5.3271348960272951e+00  9.2661594528794655e+00  8.4467093965009425e+00  8.7008508246555820e+00  8.1416749969853761e+00  3.1676123686757864e+00  9.1828465705153857e+00  8.8953305137323913e+00  6.9890613738024241e+00  7.3566011865824361e+00  1.1065975657845954e+00  9.4887734032505229e+00  9.8779484072668406e+00  9.8911717798950729e+00  9.8546415996211980e+00  5.8342713983974415e+00  6.3362897132793154e+00  5.1898902789263373e+00  9.0834816362779893e+00  9.7032041934486237e+00  7.3666961336269265e+00  9.1931520138970715e+00  9.0734896578604953e+00  8.1702971793081947e+00  9.3827504089550189e+00  8.0964804829449637e+00  4.8412405752078884e+00  9.6902138356478993e+00  7.4537600165035922e+00  9.7435662402857819e+00  2.3910528154537003e+00  9.8912606334673843e+00  9.4557271713789626e-01  5.9688038107465893e+00  9.6136587486711331e+00  9.5345103215447349e+00  9.5197497576747967e+00  8.4876247125418072e+00  2.9202227988856948e+00  9.2259852707455137e-01  9.7687333614315257e+00  9.9238331405049376e+00  7.4810618880970834e+00  9.1820457484162947e+00  9.4479166564315431e+00  9.3389457307467971e+00  9.9240046807240532e+00  9.7812242446214661e+00  9.1444549565005193e+00  8.9090180689971863e+00  6.6142733605446518e+00  3.3175411069078593e+00  2.8611275752504923e+00  4.4162929571307741e+00  9.9239090754590134e+00  8.8420257698557225e-01  8.8471287197761506e-01  9.9237485902988869e+00  9.9236295268744374e+00  8.7857942872607548e+00  1.1344280732895293e+00  9.9236270680537189e+00  9.6613362816556130e+00  9.5127430692894883e+00  8.8817362995542677e+00  9.0033805125796125e+00  9.6354180930955931e+00  9.2750319067050206e+00  9.2185869917670153e+00  8.6522896071822455e+00  8.8290399796770629e+00  9.2232285304926886e-01  4.1754709430195680e+00  9.6535902916867755e+00  7.7936316618674937e+00  8.2033645604740268e+00  6.3192377750756243e+00  8.6356617832771807e+00  9.0049071170186927e+00  6.0372214970950910e+00  7.5938006133960183e+00  7.0638434240537782e+00  7.9149474844998879e+00  9.5071734247857407e+00  9.3436629878724649e+00  9.7923948809176729e+00  8.6629466040297558e+00  5.9839878121834662e+00  2.6570784766756290e+00  7.5447389575787138e+00  9.6883883370388304e+00  9.8093273542305184e+00  1.1735851841731983e+00  1.0433462607379260e+00  9.4929189680271548e+00  9.6458458359160950e+00  7.9320749566902853e+00  9.6310658608118995e+00  8.2900949119057294e+00  9.1150340331219759e+00  9.4674908338914019e+00  6.6637145279516670e+00  5.6268946588814144e+00  8.5308762785493020e+00  8.6233811744610804e+00  8.4805278097184935e+00  8.9308012832493748e+00  5.6067442717861526e+00  4.6741328570645262e+00  5.0544918413558415e+00  4.7410530079624156e+00  5.6881380353091293e+00  5.5200322080685567e+00  8.4505761923139886e+00  8.6421538921463057e+00  8.0653087215871047e+00  9.4164410472420723e+00  9.1034615635723188e+00  4.4279644862576415e+00  5.6301984792827344e+00  9.7055941649757127e+00  8.2554308703232859e+00  9.3094501456490644e+00  9.4653226918968780e+00  9.3363949020630912e+00  6.6160499398650918e+00  9.0452408615558788e+00  7.5274431121701992e+00  7.5511283912527798e+00  8.9552435295973556e+00  8.6681587815756274e+00  8.8939307768105138e+00  9.0325143334022897e+00  8.4372674959942007e+00  7.0852163596926916e+00  6.8488867356725027e+00  9.7905691060026587e+00  9.9265473386388745e+00  9.1876243043976871e+00  1.2392570382408212e+00  8.2074135539333462e+00  9.3586755095459822e+00  7.3903531090222359e+00  9.7979774041653904e+00  6.6869145449741350e+00  9.1656877582966292e+00  7.8995800668976628e+00  6.5383560862406380e+00  9.9173999375042605e+00  1.4491626442978276e+00  8.9415100970979271e+00  9.5619906602618467e+00  9.8585660637403336e+00  8.8250148964096731e-01  9.7522352824274368e+00  8.0606497850396011e+00  7.3314538873064086e+00  4.2546998409058681e+00  1.1100284896833743e+00  9.1167174054561109e+00  2.8641448093653601e+00  4.4312648304157776e+00  4.5044342028651760e+00  8.7272391577280590e+00  8.7307091417508591e+00  9.6354521925862429e+00  9.6061023474629579e+00  9.0967461400868501e+00  1.0000000000000000e+01  6.7140679758840323e+00  2.6333012628433958e+00  9.4731865750702582e+00  7.6123609277770532e+00  7.0610666615104476e+00  8.4661575611353648e+00  4.7944642135135025e+00  4.1626814930009495e+00  9.5045373722478761e+00  9.6740522516930376e+00  5.7453995171122516e+00  5.5664163092707710e+00  9.1818115231816293e+00  6.9587640717267378e+00  8.9672811559973802e+00  6.7472567255910185e+00  8.2266568335755039e+00  7.9805789674342975e+00  8.4459436197282667e+00  1.0000000000000000e+01  9.8391909937355102e+00  9.4519733876441023e+00  9.3686433622414569e+00  2.0382396182636313e+00  9.6389301007773778e+00  9.5185043402840819e+00  9.1557943875885996e+00  8.5825632493607831e+00  4.1653113610436092e+00  9.9228215451886594e+00  8.1313127216862675e+00  7.8192550185356149e+00  3.8024291562205419e+00  2.5720275590385206e+00  9.3491493390025209e+00  9.5536263879176868e+00  8.0084447226969839e+00  8.7282573435586350e+00  8.9661842275703236e+00  8.9855448379113483e+00  8.8906555468393638e+00  4.8072060784425332e+00  9.5135367961788191e+00  0.0000000000000000e+00  4.5240696136325660e+00  5.3027974611118767e+00  8.3545404642136560e+00  6.7124473444814070e+00  7.3570390812315987e+00  9.8113083273093054e+00  9.3066963783229433e+00  9.3662217444121385e+00  8.4302482124076654e+00  9.9731997134702810e-01  9.6298276670484739e+00  8.2895974263635566e+00  8.5923157843880151e+00  8.6065686917526456e+00  1.0000000000000000e+01  9.5932249720975218e+00  9.4976425796860475e+00  9.6122588925869277e+00  7.1994196934886485e+00  9.9270058892837554e+00  9.8177596397493954e+00  9.9150357048120998e+00  0.0000000000000000e+00  9.9271041651939882e+00  8.3147511011741582e+00  3.2826007971022775e+00  4.1586958071603215e+00  9.1897289374794795e+00  9.1951980783799971e+00  9.2568136209657688e+00  9.2350912705228048e+00  9.9191495787026351e+00  9.7852837762493508e+00  8.9849490513449641e+00  8.8406364700802680e+00  2.1716588182281855e+00  7.9010764555238744e+00  8.8084305815334680e+00  7.7085229203575869e+00  6.2543583397895564e+00  3.0996870117009587e+00  4.3399277305207242e+00  3.0034766815409055e+00  7.4067530683193468e+00  9.6377022600428006e+00  4.9910125841083817e+00  9.3059943193994599e+00  0.0000000000000000e+00  5.7020515088802695e+00  9.9213928629165533e+00  1.7253188976244114e+00  9.2436326135018625e+00  8.7658920355682497e+00  7.1162494030189452e+00  9.0427767788329465e+00  8.7736132690387212e+00  8.4942890558067461e+00  8.6480360816811039e+00  9.3564293244139414e+00  9.9236402707581970e+00  2.7255212694127433e+00  9.7719336461915631e+00  8.7992624310076568e+00  9.9252936664233431e+00  8.9455182587993196e+00  9.2269531353005103e+00  8.6598244831659290e+00  5.4457786925899345e+00  8.4041783053499497e+00  1.0000000000000000e+01  8.8139878294009772e+00  3.0497881866309422e+00  9.1660756590966432e+00  3.7560038677090959e+00  8.2897705730982025e+00  9.7699107137686187e+00  9.4148669553391979e+00  3.3744970290891629e+00  3.1120736145416261e+00  7.3159872448404206e+00  2.5772522389671817e+00  5.4184759029481695e+00  6.1225323251763122e+00  5.7569952420109063e+00  6.5343767505275947e+00  6.3598913206264873e+00  9.9235139765358777e+00  1.0000000000000000e+01  3.7155748172739731e+00  8.8192034364910334e+00  9.5637641198963745e+00  9.3912275639306664e+00  9.3201653047405877e+00  9.4621744687616598e+00  9.8239489631241490e+00  8.0643303867278870e+00  9.7161178498944007e+00  7.8338170465996866e+00  8.0520739522211162e+00  9.0992979980601678e+00  9.7976282941444524e+00  8.9250694237805295e+00  7.1306561600970744e+00  9.6047265118453939e+00  8.2789693019450041e+00  8.9770422235073148e+00  9.6135549522691637e+00  9.5818662458598354e+00  8.7873693254853134e+00  0.0000000000000000e+00  9.8016511352516229e+00  0.0000000000000000e+00  9.5587143266699961e+00  8.4874805529986173e+00  6.6233403209966619e+00  6.6588898266475365e+00  6.7221957499719185e+00  9.2357824637475368e+00  8.2459643846329307e+00  9.4886153976092551e+00  3.5403646829568545e+00  7.9650645135780440e+00  9.6642434143217635e+00  9.4346550895530363e+00  3.6633286626985182e+00  8.2551116565418940e+00  8.2914820213360159e+00  8.7648909145007181e+00  9.7437709967239030e+00  9.5052683682612482e+00  9.2628020502383883e+00  9.1232291688711467e+00  9.6501522413024183e+00  9.8510563243972236e+00  9.9271398273334199e+00  9.4135286188441789e+00  2.0934703891381892e+00  8.6504199850793757e+00  9.6821682132774312e-01  8.9017368638025438e+00  9.9272037611676431e+00  1.0000000000000000e+01  1.0000000000000000e+01  9.7814919179635602e+00  7.4545513220837591e+00  9.6353054644281766e+00  0.0000000000000000e+00  8.8230670795137844e-01  8.7866446486620955e+00  0.0000000000000000e+00  1.0000000000000000e+01  6.6173781332694341e+00  9.7815085276923082e+00  1.0000000000000000e+01  9.3394187705310827e+00  9.1823402224064825e+00  1.0000000000000000e+01  1.0000000000000000e+01  1.0000000000000000e+01  0.0000000000000000e+00  0.0000000000000000e+00  0.0000000000000000e+00  8.4879288702392994e+00  0.0000000000000000e+00  7.4567396529605841e+00  9.4888007587293899e+00  0.0000000000000000e+00  2.5956959959098422e+00  2.5967491646430330e+00  0.0000000000000000e+00  5.5184566116142770e+00  9.0056057337551305e+00  0.0000000000000000e+00  9.3390846819977114e+00  1.0000000000000000e+01  1.0000000000000000e+01  9.9271686690047449e+00  0.0000000000000000e+00  9.0057876832521817e+00  0.0000000000000000e+00  8.4867863231193663e+00  1.0000000000000000e+01  1.0000000000000000e+01  5.8091641866724864e+00  9.4356348773857999e+00  7.6670186242108462e-01  9.0811665173307894e+00  8.9729955470497931e+00  9.5353815716499994e+00  7.9263424696443243e+00  5.5399694555551040e+00  5.9902283465967310e+00  5.0722242080295077e+00  9.7689980194144308e+00  4.5254863678297870e+00  8.3153806048639822e-01  3.9328833426750229e+00  9.6716949205658853e+00  1.7759958706847232e+00  2.2010347078589536e+00  8.6790803017603646e-01  1.7878098370384985e+00  1.3193152669007657e+00  1.9644866073984193e+00  1.8297763877523359e+00  9.7761709861157051e+00  9.6962145754920694e+00  5.7901654557057478e+00  8.9126303826925746e+00  9.9196186632778574e+00  2.5521730759245016e+00  9.1462502612563146e+00  8.1924945733912473e+00  3.7483639822215595e+00  7.9525329692492992e+00  6.7493368631216066e+00  7.6293912836582649e+00  9.4546322425287403e+00  9.8124253696343526e+00  5.4134333339940577e+00  9.7331277636654132e+00  9.6676448175078669e+00  9.2338685723642229e+00  7.4811085937082362e+00  8.5561484819392355e+00  9.2961574458244520e+00  6.3370893482892603e+00  8.8221939617459704e+00  9.7693986204817662e+00  6.7201957298198884e+00  9.1050774215970289e+00  9.5954193574033262e+00  9.4741799386467545e+00  9.5820313803935644e+00  8.4998002044475118e-01  6.2964154301950215e+00  5.7661733001979334e+00  5.2036168093551600e+00  3.6006563106471248e+00  4.4378914837455063e+00  8.1153020697294895e+00  8.7531087595296135e+00  8.5883922787678131e+00  9.4825008105023336e+00  9.8550211375141128e+00  9.8030406690417209e+00  9.4055411876373096e+00  9.3640544319735426e+00  7.9919093029837427e+00  8.7660948287245350e+00  3.3196571623241842e+00  3.7842715861665046e+00  4.8356292669056176e+00  4.4099917775183304e+00  5.1507358553388585e+00  4.9336919363647702e+00  4.5724890829718809e+00  9.1373069861832761e+00  9.1154466851499265e+00  7.8974547453566331e+00  8.9954829447218021e+00  9.7610206477410379e+00  7.3824857430327020e+00  6.7936148757788040e+00  9.9351800131886066e+00  9.6705571445241993e+00  9.7128104034630258e+00  8.8374554233549407e+00  2.5337821207304412e+00  9.1553642181514867e+00  8.5742025358276894e+00  7.3239514621507000e+00  9.2910570139116686e+00  9.4944714450106158e+00  4.6362487318235326e+00  9.6314535422556666e+00  9.5739559848742246e+00  9.4805637021546119e+00  9.9242556228842567e+00  9.7103745102091938e+00  9.7358832761234009e+00  9.8061475427796569e+00  9.6443020470822987e+00  7.0425975686272908e+00  3.1301480559377572e+00  4.4039504548062283e+00  9.9268655838474675e+00  7.1679172841743117e+00  4.4335142451961254e+00  9.1640270680925369e+00  9.3031391670396335e+00  8.3547544339995170e+00  7.6800817849734022e+00  8.5327012096353378e+00  5.6319422393410230e+00  5.8791941407843487e+00  5.4823012738542687e+00  7.0409748659315119e-01  6.9541367601578763e+00  9.5798275734811611e+00  9.4936672446243762e+00  3.8635972822533837e+00  9.8206489166230178e+00  9.5052890147976541e+00  9.6478743156874334e+00  9.3803797310090218e+00  9.1003649886512754e+00  4.5206965140071702e+00  3.9439959781780982e+00  3.1867563217947232e+00  3.4072250955921115e+00  9.0052265788806416e+00  9.46875