<?xml version="1.0"?>
<VTKFile type="UnstructuredGrid"  version="0.1"  >
<UnstructuredGrid>
<Piece  NumberOfPoints="18071" NumberOfCells="35544">
<Points>
<DataArray  type="Float64"  NumberOfComponents="3"  format="ascii">0.9486832980505138 0 0  0.9484724340806782 0.02000104469955538 0  0.9478399359086995 0.03999319812908447 0  0.9467860847054931 0.0599675729710886 0  0.9453113489503684 0.07991528981136745 0  0.9434163842227721 0.09982748108627622 0  0.9411020329108563 0.119695295024715 0  0.938369323837003 0.1395098995830973 0  0.9352194718004709 0.1592624863715497 0  0.931653877037369 0.1789442745695953 0  0.9276741245981944 0.1985465148295827 0  0.9232819836432135 0.2180604931661231 0  0.9184794066559997 0.2374775348298079 0  0.9132685285754754 0.2567890081634844 0  0.9076516658468453 0.2759863284393749 0  0.9016313153918442 0.2950609616753339 0  0.8952101534987531 0.3140044284285474 0  0.8883910346326832 0.3328083075649862 0  0.8811769901666499 0.3514642400029395 0  0.873571227034005 0.3699639324289635 0  0.8655771263028276 0.3882991609845931 0  0.8571982416729006 0.4064617749221782 0  0.8484382978959503 0.4244437002282196 0  0.8393011891198424 0.4422369432125932 0  0.829790977157478 0.459833594062067 0  0.8199118896811526 0.477225830356532 0  0.8096683183431869 0.4944059205463824 0  0.7990648168236594 0.5113662273895018 0  0.7881060988061126 0.5280992113463244 0  0.7767970358821309 0.5445974339314641 0  0.7651426553857218 0.5608535610204205 0  0.753148138158463 0.5768603661098937 0  0.7408188162464108 0.5926107335302548 0  0.7281601705297891 0.6080976616087488 0  0.7151778282865192 0.6233142657820195 0  0.7018775606906669 0.6382537816565753 0  0.6882652802469232 0.652909568015835 0  0.6743470381622587 0.6672751097724156 0  0.6601290216559174 0.6813440208643511 0  0.6456175512089487 0.6951100470939552 0  0.6308190777544996 0.7085670689080622 0  0.6157401798101144 0.7217091041184169 0  0.6003875605533189 0.734530310560997 0  0.584768044841788 0.7470249886930909 0  0.5688885761794213 0.7591875841269735 0  0.5527562136296766 0.7710126900990562 0  0.5363781286775311 0.7824950498734097 0  0.5197616020414676 0.7936295590785962 0  0.5029140204369025 0.8044112679767674 0  0.4858428732924924 0.8148353836640227 0  0.4685557494207815 0.8248972722010478 0  0.4510603336446699 0.8345924606730875 0  0.4333644033811983 0.8439166391783361 0  0.4154758251841748 0.8528656627438631 0  0.3974025512471733 0.8614355531682203 0  0.379152615868464 0.8696225007899122 0  0.3607341318794444 0.8774228661809444 0  0.342155287038158 0.8848331817646961 0  0.3234243403895067 0.8918501533573969 0  0.3045496185937731 0.898470661632525 0  0.2855395122250832 0.904691763507473 0  0.2664024720414594 0.9105106934518669 0  0.2471470052281184 0.915924864716955 0  0.2277816716156831 0.9209318704855235 0  0.2083150798749952 0.925529484941822 0  0.1887558836902123 0.9297156642610294 0  0.1691127779118977 0.9334885475178156 0  0.1493944946918097 0.9368464575135985 0  0.1296097996011066 0.9397879015221259 0  0.1097674877336993 0.9423115719530522 0  0.08987637979647611 0.9444163469332154 0  0.06994531818814397 0.9461012908053551 0  0.04998316306842656 0.9473656545440494 0  0.02999878841936526 0.9482088760886865 0  0.01000107810047723 0.9486305805933245 0  -0.01000107810047732 0.9486305805933245 0  -0.02999878841936514 0.9482088760886865 0  -0.04998316306842644 0.9473656545440494 0  -0.06994531818814406 0.9461012908053551 0  -0.08987637979647599 0.9444163469332155 0  -0.1097674877336992 0.9423115719530522 0  -0.1296097996011065 0.9397879015221259 0  -0.1493944946918096 0.9368464575135985 0  -0.1691127779118979 0.9334885475178156 0  -0.1887558836902122 0.9297156642610294 0  -0.2083150798749951 0.925529484941822 0  -0.227781671615683 0.9209318704855235 0  -0.247147005228118 0.9159248647169551 0  -0.2664024720414591 0.9105106934518669 0  -0.2855395122250831 0.904691763507473 0  -0.3045496185937729 0.8984706616325251 0  -0.3234243403895066 0.8918501533573969 0  -0.3421552870381577 0.8848331817646962 0  -0.3607341318794441 0.8774228661809446 0  -0.3791526158684641 0.8696225007899122 0  -0.3974025512471734 0.8614355531682203 0  -0.4154758251841746 0.8528656627438632 0  -0.4333644033811984 0.8439166391783361 0  -0.4510603336446696 0.8345924606730876 0  -0.4685557494207815 0.8248972722010479 0  -0.4858428732924923 0.8148353836640227 0  -0.5029140204369026 0.8044112679767673 0  -0.5197616020414676 0.7936295590785962 0  -0.536378128677531 0.7824950498734098 0  -0.5527562136296768 0.7710126900990562 0  -0.5688885761794211 0.7591875841269737 0  -0.5847680448417879 0.747024988693091 0  -0.6003875605533187 0.7345303105609973 0  -0.6157401798101142 0.721709104118417 0  -0.6308190777544995 0.7085670689080623 0  -0.6456175512089487 0.6951100470939551 0  -0.6601290216559171 0.6813440208643513 0  -0.6743470381622587 0.6672751097724156 0  -0.688265280246923 0.6529095680158352 0  -0.7018775606906668 0.6382537816565753 0  -0.7151778282865192 0.6233142657820195 0  -0.7281601705297891 0.6080976616087488 0  -0.7408188162464107 0.592610733530255 0  -0.753148138158463 0.5768603661098938 0  -0.7651426553857216 0.5608535610204208 0  -0.7767970358821308 0.5445974339314642 0  -0.7881060988061125 0.5280992113463245 0  -0.7990648168236594 0.5113662273895018 0  -0.8096683183431868 0.4944059205463825 0  -0.8199118896811526 0.477225830356532 0  -0.8297909771574777 0.4598335940620675 0  -0.8393011891198424 0.4422369432125932 0  -0.8484382978959502 0.4244437002282198 0  -0.8571982416729006 0.4064617749221782 0  -0.8655771263028273 0.3882991609845933 0  -0.873571227034005 0.3699639324289636 0  -0.8811769901666499 0.3514642400029395 0  -0.8883910346326833 0.332808307564986 0  -0.8952101534987531 0.3140044284285475 0  -0.9016313153918442 0.295060961675334 0  -0.9076516658468452 0.2759863284393752 0  -0.9132685285754755 0.2567890081634842 0  -0.9184794066559997 0.237477534829808 0  -0.9232819836432135 0.218060493166123 0  -0.9276741245981943 0.1985465148295829 0  -0.931653877037369 0.1789442745695954 0  -0.9352194718004709 0.15926248637155 0  -0.938369323837003 0.1395098995830971 0  -0.9411020329108563 0.1196952950247151 0  -0.9434163842227721 0.09982748108627618 0  -0.9453113489503684 0.07991528981136768 0  -0.9467860847054931 0.05996757297108869 0  -0.9478399359086995 0.03999319812908442 0  -0.9484724340806782 0.02000104469955522 0  -0.9486832980505138 1.161801964362116e-16 0  -0.9484724340806782 -0.02000104469955541 0  -0.9478399359086995 -0.0399931981290842 0  -0.9467860847054931 -0.05996757297108847 0  -0.9453113489503684 -0.07991528981136745 0  -0.9434163842227721 -0.09982748108627594 0  -0.9411020329108563 -0.1196952950247148 0  -0.938369323837003 -0.1395098995830973 0  -0.935219471800471 -0.1592624863715494 0  -0.9316538770373691 -0.1789442745695952 0  -0.9276741245981944 -0.1985465148295827 0  -0.9232819836432136 -0.2180604931661228 0  -0.9184794066559998 -0.2374775348298077 0  -0.9132685285754755 -0.256789008163484 0  -0.9076516658468454 -0.2759863284393745 0  -0.9016313153918442 -0.2950609616753337 0  -0.8952101534987533 -0.3140044284285469 0  -0.8883910346326832 -0.3328083075649862 0  -0.8811769901666497 -0.3514642400029397 0  -0.8735712270340051 -0.3699639324289634 0  -0.8655771263028275 -0.3882991609845931 0  -0.8571982416729007 -0.406461774922178 0  -0.8484382978959503 -0.4244437002282196 0  -0.8393011891198425 -0.4422369432125929 0  -0.8297909771574781 -0.4598335940620669 0  -0.8199118896811529 -0.4772258303565314 0  -0.8096683183431871 -0.494405920546382 0  -0.7990648168236597 -0.5113662273895012 0  -0.7881060988061124 -0.5280992113463246 0  -0.7767970358821309 -0.544597433931464 0  -0.7651426553857217 -0.5608535610204206 0  -0.7531481381584632 -0.5768603661098936 0  -0.7408188162464108 -0.5926107335302547 0  -0.7281601705297893 -0.6080976616087486 0  -0.7151778282865193 -0.6233142657820193 0  -0.7018775606906672 -0.638253781656575 0  -0.6882652802469235 -0.6529095680158347 0  -0.674347038162259 -0.6672751097724151 0  -0.660129021655917 -0.6813440208643514 0  -0.6456175512089486 -0.6951100470939552 0  -0.6308190777544994 -0.7085670689080624 0  -0.6157401798101141 -0.7217091041184172 0  -0.6003875605533191 -0.7345303105609969 0  -0.5847680448417881 -0.7470249886930909 0  -0.5688885761794213 -0.7591875841269736 0  -0.5527562136296765 -0.7710126900990563 0  -0.5363781286775317 -0.7824950498734093 0  -0.519761602041468 -0.7936295590785959 0  -0.5029140204369028 -0.8044112679767672 0  -0.4858428732924925 -0.8148353836640226 0  -0.4685557494207817 -0.8248972722010478 0  -0.4510603336446699 -0.8345924606730875 0  -0.4333644033811982 -0.8439166391783361 0  -0.4154758251841745 -0.8528656627438633 0  -0.3974025512471736 -0.8614355531682203 0  -0.3791526158684643 -0.8696225007899121 0  -0.3607341318794445 -0.8774228661809444 0  -0.342155287038158 -0.8848331817646962 0  -0.3234243403895075 -0.8918501533573966 0  -0.3045496185937727 -0.8984706616325251 0  -0.2855395122250827 -0.9046917635074732 0  -0.2664024720414597 -0.9105106934518667 0  -0.2471470052281185 -0.915924864716955 0  -0.2277816716156832 -0.9209318704855235 0  -0.2083150798749951 -0.925529484941822 0  -0.1887558836902128 -0.9297156642610293 0  -0.1691127779118983 -0.9334885475178155 0  -0.14939449469181 -0.9368464575135985 0  -0.1296097996011069 -0.9397879015221258 0  -0.1097674877336994 -0.942311571953052 0  -0.08987637979647602 -0.9444163469332154 0  -0.06994531818814387 -0.9461012908053551 0  -0.04998316306842625 -0.9473656545440494 0  -0.02999878841936558 -0.9482088760886865 0  -0.01000107810047755 -0.9486305805933245 0  0.0100010781004772 -0.9486305805933245 0  0.02999878841936524 -0.9482088760886865 0  0.04998316306842591 -0.9473656545440494 0  0.06994531818814352 -0.9461012908053552 0  0.08987637979647567 -0.9444163469332155 0  0.1097674877336991 -0.9423115719530522 0  0.1296097996011066 -0.9397879015221259 0  0.1493944946918097 -0.9368464575135985 0  0.1691127779118979 -0.9334885475178156 0  0.1887558836902125 -0.929715
[...]
<PointData  Scalars="f_29-2"> 
<DataArray  type="Float64"  Name="f_29-2"  format="ascii">0.0000000000000000e+00  0.0000000000000000e+00  0.0000000000000000e+00  0.0000000000000000e+00  0.0000000000000000e+00  0.0000000000000000e+00  0.0000000000000000e+00  0.0000000000000000e+00  0.0000000000000000e+00  0.0000000000000000e+00  0.0000000000000000e+00  0.0000000000000000e+00  0.0000000000000000e+00  0.0000000000000000e+00  0.0000000000000000e+00  0.0000000000000000e+00  0.0000000000000000e+00  0.0000000000000000e+00  0.0000000000000000e+00  0.0000000000000000e+00  0.0000000000000000e+00  0.0000000000000000e+00  0.0000000000000000e+00  0.0000000000000000e+00  0.0000000000000000e+00  0.0000000000000000e+00  0.0000000000000000e+00  0.0000000000000000e+00  0.0000000000000000e+00  0.0000000000000000e+00  0.0000000000000000e+00  0.0000000000000000e+00  0.0000000000000000e+00  0.0000000000000000e+00  0.0000000000000000e+00  0.0000000000000000e+00  0.0000000000000000e+00  0.0000000000000000e+00  0.0000000000000000e+00  0.0000000000000000e+00  0.0000000000000000e+00  0.0000000000000000e+00  0.0000000000000000e+00  0.0000000000000000e+00  0.0000000000000000e+00  0.0000000000000000e+00  0.0000000000000000e+00  0.0000000000000000e+00  0.0000000000000000e+00  0.0000000000000000e+00  0.0000000000000000e+00  0.0000000000000000e+00  0.0000000000000000e+00  0.0000000000000000e+00  0.0000000000000000e+00  0.0000000000000000e+00  0.0000000000000000e+00  0.0000000000000000e+00  0.0000000000000000e+00  0.0000000000000000e+00  0.0000000000000000e+00  0.0000000000000000e+00  0.0000000000000000e+00  0.0000000000000000e+00  0.0000000000000000e+00  0.0000000000000000e+00  0.0000000000000000e+00  0.0000000000000000e+00  0.0000000000000000e+00  0.0000000000000000e+00  0.0000000000000000e+00  0.0000000000000000e+00  0.0000000000000000e+00  0.0000000000000000e+00  0.0000000000000000e+00  0.0000000000000000e+00  0.0000000000000000e+00  0.0000000000000000e+00  0.0000000000000000e+00  0.0000000000000000e+00  0.0000000000000000e+00  0.0000000000000000e+00  0.0000000000000000e+00  0.0000000000000000e+00  0.0000000000000000e+00  0.0000000000000000e+00  0.0000000000000000e+00  0.0000000000000000e+00  0.0000000000000000e+00  0.0000000000000000e+00  0.0000000000000000e+00  0.0000000000000000e+00  0.0000000000000000e+00  0.0000000000000000e+00  0.0000000000000000e+00  0.0000000000000000e+00  0.0000000000000000e+00  0.0000000000000000e+00  0.0000000000000000e+00  0.0000000000000000e+00  0.0000000000000000e+00  0.0000000000000000e+00  0.0000000000000000e+00  0.0000000000000000e+00  0.0000000000000000e+00  0.0000000000000000e+00  0.0000000000000000e+00  0.0000000000000000e+00  0.0000000000000000e+00  0.0000000000000000e+00  0.0000000000000000e+00  0.0000000000000000e+00  0.0000000000000000e+00  0.0000000000000000e+00  0.0000000000000000e+00  0.0000000000000000e+00  0.0000000000000000e+00  0.0000000000000000e+00  0.0000000000000000e+00  0.0000000000000000e+00  0.0000000000000000e+00  0.0000000000000000e+00  0.0000000000000000e+00  0.0000000000000000e+00  0.0000000000000000e+00  0.0000000000000000e+00  0.0000000000000000e+00  0.0000000000000000e+00  0.0000000000000000e+00  0.0000000000000000e+00  0.0000000000000000e+00  0.0000000000000000e+00  0.0000000000000000e+00  0.0000000000000000e+00  0.0000000000000000e+00  0.0000000000000000e+00  0.0000000000000000e+00  0.0000000000000000e+00  0.0000000000000000e+00  0.0000000000000000e+00  0.0000000000000000e+00  0.0000000000000000e+00  0.0000000000000000e+00  0.0000000000000000e+00  0.0000000000000000e+00  0.0000000000000000e+00  0.0000000000000000e+00  0.0000000000000000e+00  0.0000000000000000e+00  0.0000000000000000e+00  0.0000000000000000e+00  0.0000000000000000e+00  0.0000000000000000e+00  0.0000000000000000e+00  0.0000000000000000e+00  0.0000000000000000e+00  0.0000000000000000e+00  0.0000000000000000e+00  0.0000000000000000e+00  0.0000000000000000e+00  0.0000000000000000e+00  0.0000000000000000e+00  0.0000000000000000e+00  0.0000000000000000e+00  0.0000000000000000e+00  0.0000000000000000e+00  0.0000000000000000e+00  0.0000000000000000e+00  0.0000000000000000e+00  0.0000000000000000e+00  0.0000000000000000e+00  0.0000000000000000e+00  0.0000000000000000e+00  0.0000000000000000e+00  0.0000000000000000e+00  0.0000000000000000e+00  0.0000000000000000e+00  0.0000000000000000e+00  0.0000000000000000e+00  0.0000000000000000e+00  0.0000000000000000e+00  0.0000000000000000e+00  0.0000000000000000e+00  0.0000000000000000e+00  0.0000000000000000e+00  0.0000000000000000e+00  0.0000000000000000e+00  0.0000000000000000e+00  0.0000000000000000e+00  0.0000000000000000e+00  0.0000000000000000e+00  0.0000000000000000e+00  0.0000000000000000e+00  0.0000000000000000e+00  0.0000000000000000e+00  0.0000000000000000e+00  0.0000000000000000e+00  0.0000000000000000e+00  0.0000000000000000e+00  0.0000000000000000e+00  0.0000000000000000e+00  0.0000000000000000e+00  0.0000000000000000e+00  0.0000000000000000e+00  0.0000000000000000e+00  0.0000000000000000e+00  0.0000000000000000e+00  0.0000000000000000e+00  0.0000000000000000e+00  0.0000000000000000e+00  0.0000000000000000e+00  0.0000000000000000e+00  0.0000000000000000e+00  0.0000000000000000e+00  0.0000000000000000e+00  0.0000000000000000e+00  0.0000000000000000e+00  0.0000000000000000e+00  0.0000000000000000e+00  0.0000000000000000e+00  0.0000000000000000e+00  0.0000000000000000e+00  0.0000000000000000e+00  0.0000000000000000e+00  0.0000000000000000e+00  0.0000000000000000e+00  0.0000000000000000e+00  0.0000000000000000e+00  0.0000000000000000e+00  0.0000000000000000e+00  0.0000000000000000e+00  0.0000000000000000e+00  0.0000000000000000e+00  0.0000000000000000e+00  0.0000000000000000e+00  0.0000000000000000e+00  0.0000000000000000e+00  0.0000000000000000e+00  0.0000000000000000e+00  0.0000000000000000e+00  0.0000000000000000e+00  0.0000000000000000e+00  0.0000000000000000e+00  0.0000000000000000e+00  0.0000000000000000e+00  0.0000000000000000e+00  0.0000000000000000e+00  0.0000000000000000e+00  0.0000000000000000e+00  0.0000000000000000e+00  0.0000000000000000e+00  0.0000000000000000e+00  0.0000000000000000e+00  0.0000000000000000e+00  0.0000000000000000e+00  0.0000000000000000e+00  0.0000000000000000e+00  0.0000000000000000e+00  0.0000000000000000e+00  0.0000000000000000e+00  0.0000000000000000e+00  0.0000000000000000e+00  0.0000000000000000e+00  0.0000000000000000e+00  0.0000000000000000e+00  0.0000000000000000e+00  0.0000000000000000e+00  0.0000000000000000e+00  0.0000000000000000e+00  0.0000000000000000e+00  0.0000000000000000e+00  0.0000000000000000e+00  0.0000000000000000e+00  0.0000000000000000e+00  0.0000000000000000e+00  0.0000000000000000e+00  0.0000000000000000e+00  0.0000000000000000e+00  0.0000000000000000e+00  0.0000000000000000e+00  0.0000000000000000e+00  0.0000000000000000e+00  0.0000000000000000e+00  0.0000000000000000e+00  0.0000000000000000e+00  0.0000000000000000e+00  0.0000000000000000e+00  0.0000000000000000e+00  0.0000000000000000e+00  0.0000000000000000e+00  0.0000000000000000e+00  0.0000000000000000e+00  0.0000000000000000e+00  0.0000000000000000e+00  0.0000000000000000e+00  0.0000000000000000e+00  0.0000000000000000e+00  0.0000000000000000e+00  1.4116945474350189e+00  1.0458854520712977e+00  1.0458036315386379e+00  1.0458310686117405e+00  1.0458592353974239e+00  1.0216153322500308e+00  9.8266998130670691e-01  8.3232643381681726e-01  8.3224906010637800e-01  7.6022678992733805e-01  7.5667533509647666e-01  7.3339053549125843e-01  7.2373368776054903e-01  1.2720688306383348e+00  1.2720615873673713e+00  1.2868899205018223e+00  6.4199252635744286e-01  6.4194485478101215e-01  6.4667675204831154e-01  6.4196321611972895e-01  1.2884173635404070e+00  1.2634072972213473e+00  6.1549301884459451e-01  6.1662469819104260e-01  1.2206828658630873e+00  6.0231448441192648e-01  5.8267481967647672e-01  6.3012558507397587e-01  6.4492882055095846e-01  5.8004820778841881e-01  1.0538297069594034e+00  7.3242646333286732e-01  4.8656693010398600e-01  4.8656412938272814e-01  4.9084113800469287e-01  4.8657253111483928e-01  1.0669175212867437e+00  9.5853049891900677e-01  9.5843662314043765e-01  1.0716825571149153e+00  9.6534930865052204e-01  1.3531475313868335e+00  1.3586416920960898e+00  1.0464210627122401e+00  4.5085163745522827e-01  4.4063584061143890e-01  4.4925421634197277e-01  4.4172032756032065e-01  7.5102542807578143e-01  4.3812052786042976e-01  4.3850553998040354e-01  4.1683006109688087e-01  4.2640737898269493e-01  9.8054949682410009e-01  8.9521341930835863e-01  1.0162636143868713e+00  4.1502223695634471e-01  4.1462813248760605e-01  1.2573830347418655e+00  1.0882904378723588e+00  1.3725641072652546e+00  1.3658145923936575e+00  1.3474496696430571e+00  8.6218789896940629e-01  1.2334137111143704e+00  4.2655513238338166e-01  1.1712974730225594e+00  1.2246688491521762e+00  4.1106590194926118e-01  3.9110878985234376e-01  8.3342645298199647e-01  9.3760252842037528e-01  3.8297037575115667e-01  1.2245159368765484e+00  1.3763533037071105e+00  1.1661985816511629e+00  1.1535265591491337e+00  1.1909862007024288e+00  1.1598228454839703e+00  8.7204635972786071e-01  3.6547469807752553e-01  3.6208913135329357e-01  3.6200647769558869e-01  7.6483037753251382e-01  3.6280994141715228e-01  3.8692743260935214e-01  9.0363476935252529e-01  7.9218414416629368e-01  3.5082855218203507e-01  1.1469361514821741e+00  8.6111195863937984e-01  9.0983427748564061e-01  7.4794701784374529e-01  3.4130628265563301e-01  1.0765506483931753e+00  7.4911068027178673e-01  7.4905968794988687e-01  3.3900671594758297e-01  1.1514155021060457e+00  3.4000672606293320e-01  8.1079270581550666e-01  3.4037813813484336e-01  7.1369882846656019e-01  8.6566997488761377e-01  8.3453945632074045e-01  1.2951056904382980e+00  1.1825013796046255e+00  1.1588125332430541e+00  3.2575414247718154e-01  6.8345070174619227e-01  3.1183998289969556e-01  1.1390025067335705e+00  7.9847898970553188e-01  8.9622912624023676e-01  3.4131818790591245e-01  6.8978273698614212e-01  1.3606309480923795e+00  9.0194987591221798e-01  6.0385996631619299e-01  6.9590889283995794e-01  3.5977975139895690e-01  3.3552779503869296e-01  6.0148371088860930e-01  1.0080246070649614e+00  1.2876079115343999e+00  8.2982343655430890e-01  6.5678486471972553e-01  1.2796327976127067e+00  3.0713165306427836e-01  6.6086168939422540e-01  4.1063218933966278e-01  3.2006192709809134e-01  6.2451516976717114e-01  1.0197311849901836e+00  3.0937312823001328e-01  3.1269504273884852e-01  2.9757821302227494e-01  2.9646848465142361e-01  7.8306417341445311e-01  1.3582124731136986e+00  4.9936177303566237e-01  1.1140872379072337e+00  6.4721421925774136e-01  1.2682860388174848e+00  5.4881767520039804e-01  1.3951324236148672e+00  6.1328994830344352e-01  1.1934190161562885e+00  2.6882272456581746e-01  4.1024664721199455e-01  2.9639759666936583e-01  9.9181395200178391e-01  8.9918265872347369e-01  1.1851005787517950e+00  9.1378117636666401e-01  2.6777906974320265e-01  2.6958898907856199e-01  2.6225324911058473e-01  2.6216811086484315e-01  5.4989337212158451e-01  8.6365209363545115e-01  1.3100942326078449e+00  5.6873727479137548e-01  5.2904609822010507e-01  7.6008023654050461e-01  9.1428892299751330e-01  6.3419314927409443e-01  9.6311858990981580e-01  1.0977274266819144e+00  1.3965935982636923e+00  1.3135614368905286e+00  5.8005767857733515e-01  9.0266935067282550e-01  2.7521569560158843e-01  1.2800414082831293e+00  1.1884470437008856e+00  1.0561685469653206e+00  5.7833237792689329e-01  1.1647675141131939e+00  6.0777671650896214e-01  9.6549931808234479e-01  1.0603574303752992e+00  5.6596451605616060e-01  9.3131475652698670e-01  5.3264565000881081e-01  6.0670367673743042e-01  1.3102189029754763e+00  1.3968910096295784e+00  1.3179077430716393e+00  2.4586286397199991e-01  2.5581416201774770e-01  1.0242715129895608e+00  2.4736859933496017e-01  2.6755969018475312e-01  1.0065446441470691e+00  9.0367418438673230e-01  8.1505175264370322e-01  9.0363581919358305e-01  8.0270864159064448e-01  1.0538029472256363e+00  8.1447113965603457e-01  6.2106548343233647e-01  2.4838997588554540e-01  2.3820253867258256e-01  2.3857688543549502e-01  5.4645001884933675e-01  9.3599860383660693e-01  5.4817374743556690e-01  5.2729628553589580e-01  2.4060205107667715e-01  2.3913535988087334e-01  1.0833170263509786e+00  1.1850034167858008e+00  2.3865238659111210e-01  1.1638414997445843e+00  1.1573848009209300e+00  1.2549471542735744e+00  2.3007978577464050e-01  1.0387655944903298e+00  2.3570440343619961e-01  1.4000794893231689e+00  7.3496624756014350e-01  2.5693498635728551e-01  2.4374758165836613e-01  2.3051237475017636e-01  1.1380670671110507e+00  2.2643818755342690e-01  2.9905974212393671e-01  4.6286690769803890e-01  2.5116826263562303e-01  2.2490147380828290e-01  6.1523279076930704e-01  4.9604655014874860e-01  5.1360357920878352e-01  4.9119208489694627e-01  2.3562065024610615e-01  6.6465465328728979e-01  2.4488525273346484e-01  4.5751634886887343e-01  2.2046445252485075e-01  1.3270048630846898e+00  1.3505412399096559e+00  5.0730427143966006e-01  5.3144549778713901e-01  8.7955976218493792e-01  1.3514643959991399e+00  6.3301234516114535e-01  1.0962588065756820e+00  1.0449116880142959e+00  1.3233713666245392e+00  5.6135408027699896e-01  8.3729205320641542e-01  7.6735195779362708e-01  5.7714052072993249e-01  2.2070362952129552e-01  2.3162061900271100e-01  2.2049536734470768e-01  2.7458366464913847e-01  1.0494621580349723e+00  1.0533724910353501e+00  8.0129195522283403e-01  2.2569603409159092e-01  7.9280557718434186e-01  1.1778002726618477e+00  2.2073600336681132e-01  9.1841975065617043e-01  1.2288095930962377e+00  1.2229679403949554e+00  1.3748375942410367e+00  1.2938681269387788e+00  7.9383341855022105e-01  1.4019261507034770e+00  2.2509984281262105e-01  1.2395947540352323e+00  9.6892567257983153e-01  1.0629694635772375e+00  8.8584047206414840e-01  8.3176990614576973e-01  8.5238282548131672e-01  2.2674865167300726e-01  1.2742396132067264e+00  5.9334138630078026e-01  1.0817399894354640e+00  7.2978650309307391e-01  9.1729478630374006e-01  1.1518904355572368e+00  1.1542731690542951e+00  1.2397147214275646e+00  2.7018458548308633e-01  1.2219642906053019e+00  6.6307398157794373e-01  1.3016640181995980e+00  7.9035875703131597e-01  7.1991865828757073e-01  1.3970251384838797e+00  1.1372176154491935e+00  5.2792664113666921e-01  7.6296887065146346e-01  6.0380147667786832e-01  1.3303876327889350e+00  4.6862788195974020e-01  9.8624377732553037e-01  6.4854641034137561e-01  2.0570330138290494e-01  2.0149649999006317e-01  1.3645412081274928e+00  7.1779051201577615e-01  2.1400740336723115e-01  4.7882495972773026e-01  5.1928116672566238e-01  2.1266240316359625e-01  4.7648362064840327e-01  2.0621564786951135e-01  2.0983571200881251e-01  1.2325831765537942e+00  1.9995676522144998e-01  7.0912798455714221e-01  7.7717249199334848e-01  7.8718355371314386e-01  5.8966612856615275e-01  1.9811624333492217e-01  1.1586702708346901e+00  1.1531618322272934e+00  1.2458367218756099e+00  1.0399300855170301e+00  4.3731373771855114e-01  1.0706281294049882e+00  8.4318197772277115e-01  9.5625172683408344e-01  1.3857863321799784e+00  1.9517406915214938e-01  1.9575274842281656e-01  4.9869329935049694e-01  1.1241412965855817e+00  1.2303139878521776e+00  7.5936708165070221e-01  1.1353539164662676e+00  1.1130179308843604e+00  6.6927603035851302e-01  9.3938458027942473e-01  1.0719276780604592e+00  7.9367188295365609e-01  9.1334170862836850e-01  7.7182907395606160e-01  9.5665952236855367e-01  4.1647954070915100e-01  5.0551803257813810e-01  1.0076255640044722e+00  7.3244023172155681e-01  1.3261795589415544e+00  2.0002122242685338e-01  9.7076866206513857e-01  9.7713668112886631e-01  5.4358100524811070e-01  4.6579488082581283e-01  4.3333676593948778e-01  4.1876547408608816e-01  1.3322524334086903e+00  4.0611458538881984e-01  9.5408754138156637e-01  1.1076626353976684e+00  6.5142807704709460e-01  6.9920365629540182e-01  1.2467464098093359e+00  4.2510706673960513e-01  4.1761780766112716e-01  7.3883277327204466e-01  7.1278287313792066e-01  9.9104435880262820e-01  4.2606488810132931e-01  1.3798165253595123e+00  8.4314226468710651e-01  1.1390544708199084e+00  1.2366644912678311e+00  1.8104340642129346e-01  4.2096345871179663e-01  9.3952681261803372e-01  1.8424342330649585e-01  9.2348248405746303e-01  2.8550122086120494e-01  1.8475976747731043e-01  1.7968017821583357e-01  1.8427946294123523e-01  8.5106740830720473e-01  1.4045684225043404e+00  9.3500982026609136e-01  1.8519136568174216e-01  1.7691738662922471e-01  1.0719781353054061e+00  6.7431358911394890e-01  1.3182233751695209e+00  7.5248638603925178e-01  6.9997408073965639e-01  1.8098421397417891e-01  7.5356950761894181e-01  1.0555210301396387e+00  1.2248570435140984e+00  1.8076507355193258e-01  4.4704593406622006e-01  6.9719618418294671e-01  6.2080109342275214e-01  4.7966021294908862e-01  3.9451927375412510e-01  1.8841995955970334e-01  4.1023037314864930e-01  4.5929002572511973e-01  4.8441173402293919e-01  4.0273004479120506e-01  1.1033924230953283e+00  4.0398451195100998e-01  1.2838978183234815e+00  7.9378693982710014e-01  8.5051048550995167e-01  6.1816912238264776e-01  5.7184622737991697e-01  2.3361316548622074e-01  1.1143929718986467e+00  7.7003009344027351e-01  4.7106812013969329e-01  4.3632119586595758e-01  6.6291819339544134e-01  1.3840544381589566e+00  7.8514114184965367e-01  4.7906848113556744e-01  6.5486353584733237e-01  1.1802390131835823e+00  1.7998423330924257e-01  1.7142661679455015e-01  8.6083180814467197e-01  9.4327725168265286e-01  8.8081194016271869e-01  1.7553428534509788e-01  1.2125044916178624e+00  1.3365647403937284e+00  8.6680592786160815e-01  6.1386794543303869e-01  4.1375559393295502e-01  1.2748312692014996e+00  1.3433123848056010e+00  5.9011303395219705e-01  1.0305893354743898e+00  3.6684325916713378e-01  1.7431450006372490e-01  9.1894548961533673e-01  1.6590277472443252e-01  1.2398717844392444e+00  7.5005904709370663e-01  1.0979960620339915e+00  1.1795660243315020e+00  1.0874375472928561e+00  1.2219413453328616e+00  8.6800125529347916e-01  1.6860472183604688e-01  1.7071595519537563e-01  1.7395318858736830e-01  4.9956023595383292e-01  4.2013744233718497e-01  8.0116495677940180e-01  5.5448827571935089e-01  3.8817987939586474e-01  1.7062092894908201e-01  1.3523990357963915e+00  5.5911018679713231e-01  6.2567638075182486e-01  1.3102969154459634e+00  5.0419267418450775e-01  1.0194167681490278e+00  1.2136585767608543e+00  1.6171258996419915e-01  1.1179617121842989e+00  5.0787732427805232e-01  1.3200828792629418e+00  1.3757301870439067e+00  3.6791162192542803e-01  3.9023400796060498e-01  1.7695578763156797e-01  1.0707179972202039e+00  1.5797862320934783e-01  9.1703595711409991e-01  1.2026535230925621e+00  1.0983194787329249e+00  9.9116777752194762e-01  7.0431405145291748e-01  3.5956223157241574e-01  6.4639778764916056e-01  1.6535007949120228e-01  6.9953889394475255e-01  8.2183108334878607e-01  9.6091022369705714e-01  9.8079646733177828e-01  8.7522720952745969e-01  5.6655517880680262e-01  6.5371029573279971e-01  7.2284494717467151e-01  3.5705509889176906e-01  1.2400602136302399e+00  1.5594151423184097e-01  1.2927083379912547e+00  9.9110112058845268e-01  8.0878442236411108e-01  8.5673484490110230e-01  9.1527303916814773e-01  9.8236289682126698e-01  7.1523861031970815e-01  1.2215224915625613e+00  1.3177174211488567e+00  5.8997038660902035e-01  1.5967692913181478e-01  1.0948084589996445e+00  3.6963539645642340e-01  9.9707019831909838e-01  1.2399368160910378e+00  5.9373028680729945e-01  1.2829920384349083e+00  1.3530268457561814e+00  7.2831425268449879e-01  1.1639661859351165e+00  6.7428786568061350e-01  7.2240116720318992e-01  5.7372271886146653e-01  8.0057549373827042e-01  7.1098215707869128e-01  1.0499336464843165e+00  1.6257269281960895e-01  1.1157542629611643e+00  4.0150082200485637e-01  6.7087590166473221e-01  9.4965142163636873e-01  1.6252971488312748e-01  3.7905344789705869e-01  1.3494311987704637e+00  4.7492625289787