<?xml version="1.0"?>
<VTKFile type="UnstructuredGrid"  version="0.1"  >
<UnstructuredGrid>
<Piece  NumberOfPoints="18071" NumberOfCells="35544">
<Points>
<DataArray  type="Float64"  NumberOfComponents="3"  format="ascii">0.9486832980505138 0 0  0.9484724340806782 0.02000104469955538 0  0.9478399359086995 0.03999319812908447 0  0.9467860847054931 0.0599675729710886 0  0.9453113489503684 0.07991528981136745 0  0.9434163842227721 0.09982748108627622 0  0.9411020329108563 0.119695295024715 0  0.938369323837003 0.1395098995830973 0  0.9352194718004709 0.1592624863715497 0  0.931653877037369 0.1789442745695953 0  0.9276741245981944 0.1985465148295827 0  0.9232819836432135 0.2180604931661231 0  0.9184794066559997 0.2374775348298079 0  0.9132685285754754 0.2567890081634844 0  0.9076516658468453 0.2759863284393749 0  0.9016313153918442 0.2950609616753339 0  0.8952101534987531 0.3140044284285474 0  0.8883910346326832 0.3328083075649862 0  0.8811769901666499 0.3514642400029395 0  0.873571227034005 0.3699639324289635 0  0.8655771263028276 0.3882991609845931 0  0.8571982416729006 0.4064617749221782 0  0.8484382978959503 0.4244437002282196 0  0.8393011891198424 0.4422369432125932 0  0.829790977157478 0.459833594062067 0  0.8199118896811526 0.477225830356532 0  0.8096683183431869 0.4944059205463824 0  0.7990648168236594 0.5113662273895018 0  0.7881060988061126 0.5280992113463244 0  0.7767970358821309 0.5445974339314641 0  0.7651426553857218 0.5608535610204205 0  0.753148138158463 0.5768603661098937 0  0.7408188162464108 0.5926107335302548 0  0.7281601705297891 0.6080976616087488 0  0.7151778282865192 0.6233142657820195 0  0.7018775606906669 0.6382537816565753 0  0.6882652802469232 0.652909568015835 0  0.6743470381622587 0.6672751097724156 0  0.6601290216559174 0.6813440208643511 0  0.6456175512089487 0.6951100470939552 0  0.6308190777544996 0.7085670689080622 0  0.6157401798101144 0.7217091041184169 0  0.6003875605533189 0.734530310560997 0  0.584768044841788 0.7470249886930909 0  0.5688885761794213 0.7591875841269735 0  0.5527562136296766 0.7710126900990562 0  0.5363781286775311 0.7824950498734097 0  0.5197616020414676 0.7936295590785962 0  0.5029140204369025 0.8044112679767674 0  0.4858428732924924 0.8148353836640227 0  0.4685557494207815 0.8248972722010478 0  0.4510603336446699 0.8345924606730875 0  0.4333644033811983 0.8439166391783361 0  0.4154758251841748 0.8528656627438631 0  0.3974025512471733 0.8614355531682203 0  0.379152615868464 0.8696225007899122 0  0.3607341318794444 0.8774228661809444 0  0.342155287038158 0.8848331817646961 0  0.3234243403895067 0.8918501533573969 0  0.3045496185937731 0.898470661632525 0  0.2855395122250832 0.904691763507473 0  0.2664024720414594 0.9105106934518669 0  0.2471470052281184 0.915924864716955 0  0.2277816716156831 0.9209318704855235 0  0.2083150798749952 0.925529484941822 0  0.1887558836902123 0.9297156642610294 0  0.1691127779118977 0.9334885475178156 0  0.1493944946918097 0.9368464575135985 0  0.1296097996011066 0.9397879015221259 0  0.1097674877336993 0.9423115719530522 0  0.08987637979647611 0.9444163469332154 0  0.06994531818814397 0.9461012908053551 0  0.04998316306842656 0.9473656545440494 0  0.02999878841936526 0.9482088760886865 0  0.01000107810047723 0.9486305805933245 0  -0.01000107810047732 0.9486305805933245 0  -0.02999878841936514 0.9482088760886865 0  -0.04998316306842644 0.9473656545440494 0  -0.06994531818814406 0.9461012908053551 0  -0.08987637979647599 0.9444163469332155 0  -0.1097674877336992 0.9423115719530522 0  -0.1296097996011065 0.9397879015221259 0  -0.1493944946918096 0.9368464575135985 0  -0.1691127779118979 0.9334885475178156 0  -0.1887558836902122 0.9297156642610294 0  -0.2083150798749951 0.925529484941822 0  -0.227781671615683 0.9209318704855235 0  -0.247147005228118 0.9159248647169551 0  -0.2664024720414591 0.9105106934518669 0  -0.2855395122250831 0.904691763507473 0  -0.3045496185937729 0.8984706616325251 0  -0.3234243403895066 0.8918501533573969 0  -0.3421552870381577 0.8848331817646962 0  -0.3607341318794441 0.8774228661809446 0  -0.3791526158684641 0.8696225007899122 0  -0.3974025512471734 0.8614355531682203 0  -0.4154758251841746 0.8528656627438632 0  -0.4333644033811984 0.8439166391783361 0  -0.4510603336446696 0.8345924606730876 0  -0.4685557494207815 0.8248972722010479 0  -0.4858428732924923 0.8148353836640227 0  -0.5029140204369026 0.8044112679767673 0  -0.5197616020414676 0.7936295590785962 0  -0.536378128677531 0.7824950498734098 0  -0.5527562136296768 0.7710126900990562 0  -0.5688885761794211 0.7591875841269737 0  -0.5847680448417879 0.747024988693091 0  -0.6003875605533187 0.7345303105609973 0  -0.6157401798101142 0.721709104118417 0  -0.6308190777544995 0.7085670689080623 0  -0.6456175512089487 0.6951100470939551 0  -0.6601290216559171 0.6813440208643513 0  -0.6743470381622587 0.6672751097724156 0  -0.688265280246923 0.6529095680158352 0  -0.7018775606906668 0.6382537816565753 0  -0.7151778282865192 0.6233142657820195 0  -0.7281601705297891 0.6080976616087488 0  -0.7408188162464107 0.592610733530255 0  -0.753148138158463 0.5768603661098938 0  -0.7651426553857216 0.5608535610204208 0  -0.7767970358821308 0.5445974339314642 0  -0.7881060988061125 0.5280992113463245 0  -0.7990648168236594 0.5113662273895018 0  -0.8096683183431868 0.4944059205463825 0  -0.8199118896811526 0.477225830356532 0  -0.8297909771574777 0.4598335940620675 0  -0.8393011891198424 0.4422369432125932 0  -0.8484382978959502 0.4244437002282198 0  -0.8571982416729006 0.4064617749221782 0  -0.8655771263028273 0.3882991609845933 0  -0.873571227034005 0.3699639324289636 0  -0.8811769901666499 0.3514642400029395 0  -0.8883910346326833 0.332808307564986 0  -0.8952101534987531 0.3140044284285475 0  -0.9016313153918442 0.295060961675334 0  -0.9076516658468452 0.2759863284393752 0  -0.9132685285754755 0.2567890081634842 0  -0.9184794066559997 0.237477534829808 0  -0.9232819836432135 0.218060493166123 0  -0.9276741245981943 0.1985465148295829 0  -0.931653877037369 0.1789442745695954 0  -0.9352194718004709 0.15926248637155 0  -0.938369323837003 0.1395098995830971 0  -0.9411020329108563 0.1196952950247151 0  -0.9434163842227721 0.09982748108627618 0  -0.9453113489503684 0.07991528981136768 0  -0.9467860847054931 0.05996757297108869 0  -0.9478399359086995 0.03999319812908442 0  -0.9484724340806782 0.02000104469955522 0  -0.9486832980505138 1.161801964362116e-16 0  -0.9484724340806782 -0.02000104469955541 0  -0.9478399359086995 -0.0399931981290842 0  -0.9467860847054931 -0.05996757297108847 0  -0.9453113489503684 -0.07991528981136745 0  -0.9434163842227721 -0.09982748108627594 0  -0.9411020329108563 -0.1196952950247148 0  -0.938369323837003 -0.1395098995830973 0  -0.935219471800471 -0.1592624863715494 0  -0.9316538770373691 -0.1789442745695952 0  -0.9276741245981944 -0.1985465148295827 0  -0.9232819836432136 -0.2180604931661228 0  -0.9184794066559998 -0.2374775348298077 0  -0.9132685285754755 -0.256789008163484 0  -0.9076516658468454 -0.2759863284393745 0  -0.9016313153918442 -0.2950609616753337 0  -0.8952101534987533 -0.3140044284285469 0  -0.8883910346326832 -0.3328083075649862 0  -0.8811769901666497 -0.3514642400029397 0  -0.8735712270340051 -0.3699639324289634 0  -0.8655771263028275 -0.3882991609845931 0  -0.8571982416729007 -0.406461774922178 0  -0.8484382978959503 -0.4244437002282196 0  -0.8393011891198425 -0.4422369432125929 0  -0.8297909771574781 -0.4598335940620669 0  -0.8199118896811529 -0.4772258303565314 0  -0.8096683183431871 -0.494405920546382 0  -0.7990648168236597 -0.5113662273895012 0  -0.7881060988061124 -0.5280992113463246 0  -0.7767970358821309 -0.544597433931464 0  -0.7651426553857217 -0.5608535610204206 0  -0.7531481381584632 -0.5768603661098936 0  -0.7408188162464108 -0.5926107335302547 0  -0.7281601705297893 -0.6080976616087486 0  -0.7151778282865193 -0.6233142657820193 0  -0.7018775606906672 -0.638253781656575 0  -0.6882652802469235 -0.6529095680158347 0  -0.674347038162259 -0.6672751097724151 0  -0.660129021655917 -0.6813440208643514 0  -0.6456175512089486 -0.6951100470939552 0  -0.6308190777544994 -0.7085670689080624 0  -0.6157401798101141 -0.7217091041184172 0  -0.6003875605533191 -0.7345303105609969 0  -0.5847680448417881 -0.7470249886930909 0  -0.5688885761794213 -0.7591875841269736 0  -0.5527562136296765 -0.7710126900990563 0  -0.5363781286775317 -0.7824950498734093 0  -0.519761602041468 -0.7936295590785959 0  -0.5029140204369028 -0.8044112679767672 0  -0.4858428732924925 -0.8148353836640226 0  -0.4685557494207817 -0.8248972722010478 0  -0.4510603336446699 -0.8345924606730875 0  -0.4333644033811982 -0.8439166391783361 0  -0.4154758251841745 -0.8528656627438633 0  -0.3974025512471736 -0.8614355531682203 0  -0.3791526158684643 -0.8696225007899121 0  -0.3607341318794445 -0.8774228661809444 0  -0.342155287038158 -0.8848331817646962 0  -0.3234243403895075 -0.8918501533573966 0  -0.3045496185937727 -0.8984706616325251 0  -0.2855395122250827 -0.9046917635074732 0  -0.2664024720414597 -0.9105106934518667 0  -0.2471470052281185 -0.915924864716955 0  -0.2277816716156832 -0.9209318704855235 0  -0.2083150798749951 -0.925529484941822 0  -0.1887558836902128 -0.9297156642610293 0  -0.1691127779118983 -0.9334885475178155 0  -0.14939449469181 -0.9368464575135985 0  -0.1296097996011069 -0.9397879015221258 0  -0.1097674877336994 -0.942311571953052 0  -0.08987637979647602 -0.9444163469332154 0  -0.06994531818814387 -0.9461012908053551 0  -0.04998316306842625 -0.9473656545440494 0  -0.02999878841936558 -0.9482088760886865 0  -0.01000107810047755 -0.9486305805933245 0  0.0100010781004772 -0.9486305805933245 0  0.02999878841936524 -0.9482088760886865 0  0.04998316306842591 -0.9473656545440494 0  0.06994531818814352 -0.9461012908053552 0  0.08987637979647567 -0.9444163469332155 0  0.1097674877336991 -0.9423115719530522 0  0.1296097996011066 -0.9397879015221259 0  0.1493944946918097 -0.9368464575135985 0  0.1691127779118979 -0.9334885475178156 0  0.1887558836902125 -0.929715
[...]
<PointData  Scalars="f_29-2"> 
<DataArray  type="Float64"  Name="f_29-2"  format="ascii">0.0000000000000000e+00  0.0000000000000000e+00  0.0000000000000000e+00  0.0000000000000000e+00  0.0000000000000000e+00  0.0000000000000000e+00  0.0000000000000000e+00  0.0000000000000000e+00  0.0000000000000000e+00  0.0000000000000000e+00  0.0000000000000000e+00  0.0000000000000000e+00  0.0000000000000000e+00  0.0000000000000000e+00  0.0000000000000000e+00  0.0000000000000000e+00  0.0000000000000000e+00  0.0000000000000000e+00  0.0000000000000000e+00  0.0000000000000000e+00  0.0000000000000000e+00  0.0000000000000000e+00  0.0000000000000000e+00  0.0000000000000000e+00  0.0000000000000000e+00  0.0000000000000000e+00  0.0000000000000000e+00  0.0000000000000000e+00  0.0000000000000000e+00  0.0000000000000000e+00  0.0000000000000000e+00  0.0000000000000000e+00  0.0000000000000000e+00  0.0000000000000000e+00  0.0000000000000000e+00  0.0000000000000000e+00  0.0000000000000000e+00  0.0000000000000000e+00  0.0000000000000000e+00  0.0000000000000000e+00  0.0000000000000000e+00  0.0000000000000000e+00  0.0000000000000000e+00  0.0000000000000000e+00  0.0000000000000000e+00  0.0000000000000000e+00  0.0000000000000000e+00  0.0000000000000000e+00  0.0000000000000000e+00  0.0000000000000000e+00  0.0000000000000000e+00  0.0000000000000000e+00  0.0000000000000000e+00  0.0000000000000000e+00  0.0000000000000000e+00  0.0000000000000000e+00  0.0000000000000000e+00  0.0000000000000000e+00  0.0000000000000000e+00  0.0000000000000000e+00  0.0000000000000000e+00  0.0000000000000000e+00  0.0000000000000000e+00  0.0000000000000000e+00  0.0000000000000000e+00  0.0000000000000000e+00  0.0000000000000000e+00  0.0000000000000000e+00  0.0000000000000000e+00  0.0000000000000000e+00  0.0000000000000000e+00  0.0000000000000000e+00  0.0000000000000000e+00  0.0000000000000000e+00  0.0000000000000000e+00  0.0000000000000000e+00  0.0000000000000000e+00  0.0000000000000000e+00  0.0000000000000000e+00  0.0000000000000000e+00  0.0000000000000000e+00  0.0000000000000000e+00  0.0000000000000000e+00  0.0000000000000000e+00  0.0000000000000000e+00  0.0000000000000000e+00  0.0000000000000000e+00  0.0000000000000000e+00  0.0000000000000000e+00  0.0000000000000000e+00  0.0000000000000000e+00  0.0000000000000000e+00  0.0000000000000000e+00  0.0000000000000000e+00  0.0000000000000000e+00  0.0000000000000000e+00  0.0000000000000000e+00  0.0000000000000000e+00  0.0000000000000000e+00  0.0000000000000000e+00  0.0000000000000000e+00  0.0000000000000000e+00  0.0000000000000000e+00  0.0000000000000000e+00  0.0000000000000000e+00  0.0000000000000000e+00  0.0000000000000000e+00  0.0000000000000000e+00  0.0000000000000000e+00  0.0000000000000000e+00  0.0000000000000000e+00  0.0000000000000000e+00  0.0000000000000000e+00  0.0000000000000000e+00  0.0000000000000000e+00  0.0000000000000000e+00  0.0000000000000000e+00  0.0000000000000000e+00  0.0000000000000000e+00  0.0000000000000000e+00  0.0000000000000000e+00  0.0000000000000000e+00  0.0000000000000000e+00  0.0000000000000000e+00  0.0000000000000000e+00  0.0000000000000000e+00  0.0000000000000000e+00  0.0000000000000000e+00  0.0000000000000000e+00  0.0000000000000000e+00  0.0000000000000000e+00  0.0000000000000000e+00  0.0000000000000000e+00  0.0000000000000000e+00  0.0000000000000000e+00  0.0000000000000000e+00  0.0000000000000000e+00  0.0000000000000000e+00  0.0000000000000000e+00  0.0000000000000000e+00  0.0000000000000000e+00  0.0000000000000000e+00  0.0000000000000000e+00  0.0000000000000000e+00  0.0000000000000000e+00  0.0000000000000000e+00  0.0000000000000000e+00  0.0000000000000000e+00  0.0000000000000000e+00  0.0000000000000000e+00  0.0000000000000000e+00  0.0000000000000000e+00  0.0000000000000000e+00  0.0000000000000000e+00  0.0000000000000000e+00  0.0000000000000000e+00  0.0000000000000000e+00  0.0000000000000000e+00  0.0000000000000000e+00  0.0000000000000000e+00  0.0000000000000000e+00  0.0000000000000000e+00  0.0000000000000000e+00  0.0000000000000000e+00  0.0000000000000000e+00  0.0000000000000000e+00  0.0000000000000000e+00  0.0000000000000000e+00  0.0000000000000000e+00  0.0000000000000000e+00  0.0000000000000000e+00  0.0000000000000000e+00  0.0000000000000000e+00  0.0000000000000000e+00  0.0000000000000000e+00  0.0000000000000000e+00  0.0000000000000000e+00  0.0000000000000000e+00  0.0000000000000000e+00  0.0000000000000000e+00  0.0000000000000000e+00  0.0000000000000000e+00  0.0000000000000000e+00  0.0000000000000000e+00  0.0000000000000000e+00  0.0000000000000000e+00  0.0000000000000000e+00  0.0000000000000000e+00  0.0000000000000000e+00  0.0000000000000000e+00  0.0000000000000000e+00  0.0000000000000000e+00  0.0000000000000000e+00  0.0000000000000000e+00  0.0000000000000000e+00  0.0000000000000000e+00  0.0000000000000000e+00  0.0000000000000000e+00  0.0000000000000000e+00  0.0000000000000000e+00  0.0000000000000000e+00  0.0000000000000000e+00  0.0000000000000000e+00  0.0000000000000000e+00  0.0000000000000000e+00  0.0000000000000000e+00  0.0000000000000000e+00  0.0000000000000000e+00  0.0000000000000000e+00  0.0000000000000000e+00  0.0000000000000000e+00  0.0000000000000000e+00  0.0000000000000000e+00  0.0000000000000000e+00  0.0000000000000000e+00  0.0000000000000000e+00  0.0000000000000000e+00  0.0000000000000000e+00  0.0000000000000000e+00  0.0000000000000000e+00  0.0000000000000000e+00  0.0000000000000000e+00  0.0000000000000000e+00  0.0000000000000000e+00  0.0000000000000000e+00  0.0000000000000000e+00  0.0000000000000000e+00  0.0000000000000000e+00  0.0000000000000000e+00  0.0000000000000000e+00  0.0000000000000000e+00  0.0000000000000000e+00  0.0000000000000000e+00  0.0000000000000000e+00  0.0000000000000000e+00  0.0000000000000000e+00  0.0000000000000000e+00  0.0000000000000000e+00  0.0000000000000000e+00  0.0000000000000000e+00  0.0000000000000000e+00  0.0000000000000000e+00  0.0000000000000000e+00  0.0000000000000000e+00  0.0000000000000000e+00  0.0000000000000000e+00  0.0000000000000000e+00  0.0000000000000000e+00  0.0000000000000000e+00  0.0000000000000000e+00  0.0000000000000000e+00  0.0000000000000000e+00  0.0000000000000000e+00  0.0000000000000000e+00  0.0000000000000000e+00  0.0000000000000000e+00  0.0000000000000000e+00  0.0000000000000000e+00  0.0000000000000000e+00  0.0000000000000000e+00  0.0000000000000000e+00  0.0000000000000000e+00  0.0000000000000000e+00  0.0000000000000000e+00  0.0000000000000000e+00  0.0000000000000000e+00  0.0000000000000000e+00  0.0000000000000000e+00  0.0000000000000000e+00  0.0000000000000000e+00  0.0000000000000000e+00  0.0000000000000000e+00  0.0000000000000000e+00  0.0000000000000000e+00  0.0000000000000000e+00  0.0000000000000000e+00  0.0000000000000000e+00  0.0000000000000000e+00  0.0000000000000000e+00  0.0000000000000000e+00  0.0000000000000000e+00  0.0000000000000000e+00  0.0000000000000000e+00  0.0000000000000000e+00  0.0000000000000000e+00  0.0000000000000000e+00  0.0000000000000000e+00  0.0000000000000000e+00  0.0000000000000000e+00  0.0000000000000000e+00  0.0000000000000000e+00  0.0000000000000000e+00  0.0000000000000000e+00  0.0000000000000000e+00  0.0000000000000000e+00  0.0000000000000000e+00  0.0000000000000000e+00  0.0000000000000000e+00  3.0532936517403879e+00  2.1880643250640448e+00  2.1878373221220051e+00  2.1879282506509634e+00  2.1879873533413146e+00  2.1282303016729247e+00  2.0324724246501575e+00  1.6691934432914084e+00  1.6690702716067405e+00  1.5007492133777796e+00  1.4925794481304488e+00  1.4391902286603317e+00  1.4171309992932397e+00  2.7382105885732759e+00  2.7381953311721872e+00  2.7729738108223110e+00  1.2344692768438454e+00  1.2342936514811103e+00  1.2448016048961641e+00  1.2344032520904828e+00  2.7765440245591577e+00  2.7177995840004021e+00  1.1766159275089534e+00  1.1791439243472834e+00  2.6159258389806306e+00  1.1481510333732405e+00  1.1059792496321961e+00  1.2085159540490436e+00  1.2409957408073080e+00  1.1004045214954259e+00  2.2076489428466637e+00  1.4368725029956808e+00  9.0512108586969575e-01  9.0499174418099770e-01  9.1377641026144485e-01  9.0506307740291025e-01  2.2399266342257214e+00  1.9733530653747076e+00  1.9731444661252144e+00  2.2516870333307697e+00  1.9900049694404052e+00  2.9248423460871993e+00  2.9371546263896002e+00  2.1893612954490287e+00  8.3256088028877362e-01  8.1191182719294264e-01  8.2948610585550697e-01  8.1418638153166145e-01  1.4795198396190539e+00  8.0697843531105906e-01  8.0775618278838446e-01  7.6461968717419404e-01  7.8356024053015116e-01  2.0272601863931365e+00  1.8195483563956298e+00  2.1150528470703427e+00  7.6087807094578175e-01  7.6026811760848101e-01  2.7035309582575016e+00  2.2926303361362921e+00  2.9680977631179846e+00  2.9531383856606754e+00  2.9120415797789772e+00  1.7402904954409679e+00  2.6464651072713701e+00  7.8383064776322853e-01  2.4963405118521873e+00  2.6255030190903721e+00  7.5315157434617153e-01  7.1383433748763125e-01  1.6718594950790404e+00  1.9222895522301147e+00  6.9782564244714740e-01  2.6251407981354498e+00  2.9764726612876040e+00  2.4838986116853379e+00  2.4529409855775008e+00  2.5442211883895895e+00  2.4683556199087455e+00  1.7638502329567192e+00  6.6378036701138643e-01  6.5723012063680208e-01  6.5702586417498599e-01  1.5113596198791153e+00  6.5867512226140867e-01  7.0565060003189073e-01  1.8398825706563195e+00  1.5748609319345406e+00  6.3544668669547044e-01  2.4368134088334084e+00  1.7377181720080379e+00  1.8548752024257231e+00  1.4724751427258200e+00  6.1710483751223444e-01  2.2636844277986041e+00  1.4751546206408004e+00  1.4749335090613866e+00  6.1271143763143532e-01  2.4478005058508332e+00  6.1460896744599314e-01  1.6184278518693833e+00  6.1531869708299325e-01  1.3944321549707861e+00  1.7485500306993538e+00  1.6745332512475704e+00  2.7921086565572124e+00  2.5236199976171307e+00  2.4658897314460346e+00  5.8733154261577780e-01  1.3262832303875254e+00  5.6082503137955286e-01  2.4173598716483364e+00  1.5895384568366040e+00  1.8219822805768022e+00  6.1714277938873285e-01  1.3404736086257769e+00  2.9415984411854605e+00  1.8358353415465523e+00  1.1515387765639145e+00  1.3542804657778704e+00  6.5280515613186585e-01  6.0599067006064766e-01  1.1464300734586974e+00  2.0947692845979788e+00  2.7746489347087997e+00  1.6633374616113512e+00  1.2671117535293512e+00  2.7559941093108282e+00  5.5188588716850884e-01  1.2760337032992686e+00  7.5219740272108160e-01  5.7648147121243287e-01  1.1962611631803246e+00  2.1235881150944484e+00  5.5609025736811690e-01  5.6254824953391058e-01  5.3377839707957808e-01  5.3174864799988963e-01  1.5535721560067088e+00  2.9361896171334747e+00  9.3120807708305353e-01  2.3561685805031334e+00  1.2459782706635829e+00  2.7293055230560346e+00  1.0342534946650623e+00  3.0175717263368362e+00  1.1719260799273727e+00  2.5501128342360726e+00  4.7974592866447563e-01  7.5154973143149506e-01  5.3155508132597051e-01  2.0549282850302304e+00  1.8290956516943191e+00  2.5299227872537422e+00  1.8644325714360912e+00  4.7781484085626025e-01  4.8123836553471411e-01  4.6743500581048031e-01  4.6738365696347101e-01  1.0365370351550156e+00  1.7437599676235545e+00  2.8268731898871011e+00  1.0762847843081369e+00  9.9284397858859974e-01  1.5003703128454979e+00  1.8656321035663130e+00  1.2173321440254998e+00  1.9845429058967212e+00  2.3159041116781660e+00  3.0207475155352652e+00  2.8348366066385311e+00  1.1004414119177750e+00  1.8375820270046970e+00  4.9183345863259226e-01  2.7569513132747070e+00  2.5380783536305072e+00  2.2134143791761876e+00  1.0967091952598149e+00  2.4804251648145428e+00  1.1598981289603916e+00  1.9903946339520866e+00  2.2237555031514673e+00  1.0703592430777893e+00  1.9070182810099632e+00  1.0003459069495633e+00  1.1576539588369259e+00  2.8271300304435223e+00  3.0213903229894443e+00  2.8448231637593628e+00  4.3705974187526903e-01  4.5545546900826062e-01  2.1347726849401667e+00  4.3975603056438206e-01  4.7740723640295946e-01  2.0911270503009338e+00  1.8399767547955879e+00  1.6284907268493678e+00  1.8399421644301992e+00  1.5994796416623860e+00  2.2075776488477690e+00  1.6271303415240281e+00  1.1887859796295921e+00  4.4169924989121057e-01  4.2286195922184894e-01  4.2358243941042734e-01  1.0291813054960526e+00  1.9183717881277187e+00  1.0327605853199751e+00  9.8914996701175484e-01  4.2735762711087882e-01  4.2459487503968424e-01  2.2803779323948623e+00  2.5296992048520752e+00  4.2373892090096632e-01  2.4781833354754812e+00  2.4623955104350292e+00  2.6977433492564744e+00  4.0792827480711019e-01  2.1704852861053920e+00  4.1826396683381800e-01  3.0283026970806857e+00  1.4427608477618408e+00  4.5768042949479748e-01  4.3318733595920833e-01  4.0867613908442274e-01  2.4150747703687476e+00  4.0125849567037386e-01  5.3660041314651730e-01  8.5691679940885523e-01  4.4691306119494845e-01  3.9841839284160024e-01  1.1760459392016602e+00  9.2455217436151582e-01  9.6075695223782409e-01  9.1451083859964333e-01  4.1814086987581028e-01  1.2844813373412818e+00  4.3525212237980243e-01  8.4609864065477192e-01  3.9025986972957727e-01  2.8656713451270623e+00  2.9189956760260478e+00  9.4764220269430932e-01  9.9779230724122703e-01  1.7819231098919042e+00  2.9210616508747234e+00  1.2148060675246843e+00  2.3122811296615495e+00  2.1856397407779582e+00  2.8573377204703059e+00  1.0607567842711665e+00  1.6809941824710761e+00  1.5171535091587010e+00  1.0943130868276421e+00  3.9066187872878078e-01  4.1073137965328849e-01  3.9026464914606468e-01  4.9053946763943590e-01  2.1968732269653457e+00  2.2065142617481679e+00  1.5962042955095490e+00  3.9973932814250035e-01  1.5762400162629766e+00  2.5121907297656598e+00  3.9078080837738211e-01  1.8756603317082354e+00  2.6354307435368112e+00  2.6214299617148886e+00  2.9731413779374756e+00  2.7892482019416893e+00  1.5786718895998697e+00  3.0322909633946358e+00  3.9877144582818902e-01  2.6612380748131184e+00  1.9987972840701489e+00  2.2301964575168149e+00  1.7970080023077779e+00  1.6679066408825607e+00  1.7168897388697684e+00  4.0178638751801593e-01  2.7433247916334995e+00  1.1288750961541358e+00  2.2764958520899889e+00  1.4307788032748268e+00  1.8729190949193775e+00  2.4489446461849229e+00  2.4547975349208015e+00  2.6615277578678413e+00  4.8226089086149398e-01  2.6190023581914117e+00  1.2809815044002124e+00  2.8073577496577764e+00  1.5706310941550214e+00  1.4084068173989430e+00  3.0216920223945363e+00  2.4130017928120360e+00  9.9044952974022427e-01  1.5069965835307455e+00  1.1514896096512164e+00  2.8733749168286677e+00  8.6854170424418409e-01  2.0412296088763675e+00  1.2489309126958681e+00  3.6311572477124854e-01  3.5554421528251273e-01  2.9503114806299253e+00  1.4036669024527402e+00  3.7845422487305008e-01  8.8923859133970706e-01  9.7248817621678085e-01  3.7585497357946057e-01  8.8449553635928080e-01  3.6413219030678007e-01  3.7072563558056354e-01  2.6444905528400264e+00  3.5264194696515166e-01  1.3840182692810856e+00  1.5399930956353731e+00  1.5632130431035627e+00  1.1209316767005966e+00  3.4947187425148446e-01  2.4655325829686441e+00  2.4520558335521141e+00  2.6760719987406616e+00  2.1733627691733304e+00  8.0532595594777656e-01  2.2490869322661013e+00  1.6949484278645277e+00  1.9678092101588791e+00  2.9971934954494390e+00  3.4415662261596536e-01  3.4503139781326059e-01  9.2998049769725666e-01  2.3808914901233971e+00  2.6390661029056273e+00  1.4988002448697226e+00  2.4084365073434406e+00  2.3535432492620374e+00  1.2948155991069210e+00  1.9266477262424879e+00  2.2522872574852477e+00  1.5783599359286922e+00  1.8633296300866449e+00  1.5275160708233289e+00  1.9687828432061683e+00  7.6393323395994606e-01  9.4401299711511955e-01  2.0937870488070440e+00  1.4370115183578911e+00  2.8637874697164452e+00  3.5292512158836797e-01  2.0033011510609207e+00  2.0189017002946703e+00  1.0231635253632378e+00  8.6266701772767906e-01  7.9748084052076007e-01  7.6846122236345593e-01  2.8776349857152907e+00  7.4334270812996284e-01  1.9624957992814909e+00  2.3403629067631546e+00  1.2551716907920631e+00  1.3617869294530227e+00  2.6782793822330087e+00  7.8106334611778105e-01  7.6603954167588340e-01  1.4515011458067528e+00  1.3922173886726539e+00  2.0530306285899376e+00  7.8292734467222469e-01  2.9841037823775842e+00  1.6949404739061218e+00  2.4175114483519704e+00  2.6542506655603968e+00  3.1840493998842467e-01  7.7268314447353459e-01  1.9270068730305234e+00  3.2415801421275092e-01  1.8880028856746109e+00  5.1102110029869441e-01  3.2518217075556594e-01  3.1592816115592742e-01  3.2424971593536372e-01  1.7137651685995066e+00  3.0379897965557765e+00  1.9159866538706167e+00  3.2589456386394339e-01  3.1090004324672710e-01  2.2524132115036721e+00  1.3058745053219600e+00  2.8455673639409458e+00  1.4828690874175179e+00  1.3632879180285666e+00  3.1829408355152738e-01  1.4853800706199847e+00  2.2118211223907691e+00  2.6259549983205597e+00  3.1781007276834822e-01  8.2484216839913427e-01  1.3571392156405893e+00  1.1881702356241162e+00  8.9095331700185088e-01  7.2050876944606301e-01  3.3175878944186776e-01  7.5149041055802179e-01  8.4952829196981472e-01  9.0062150988952272e-01  7.3668330803946613e-01  2.3298529569750399e+00  7.3913403107718001e-01  2.7659839071538928e+00  1.5787336366708156e+00  1.7124789746756817e+00  1.1825283913693783e+00  1.0829531223270688e+00  4.1440247613168912e-01  2.3569157265132548e+00  1.5234329160196323e+00  8.7343341095505000e-01  8.0334853796889172e-01  1.2806237158383784e+00  2.9934075594575993e+00  1.5585559503292841e+00  8.8962052791818258e-01  1.2627757752393338e+00  2.5181077194337398e+00  3.1647654194660618e-01  3.0100494435563568e-01  1.7370875758359634e+00  1.9361105091879498e+00  1.7848776293557764e+00  3.0838401770835949e-01  2.5962628555529976e+00  2.8874315579194945e+00  1.7513448500634030e+00  1.1730218091876834e+00  7.5852549122322743e-01  2.7447066585646311e+00  2.9027165821175061e+00  1.1219099521559110e+00  2.1503380046612959e+00  6.6640170568207435e-01  3.0618415475501276e-01  1.8769530755200075e+00  2.9099511086805385e-01  2.6618838457654754e+00  1.4772508425655055e+00  2.3165510534291460e+00  2.5164835456586259e+00  2.2905343177211757e+00  2.6189764967476039e+00  1.7541687009876670e+00  2.9582921310227123e-01  2.9968709292968615e-01  3.0553386141800104e-01  9.3171693994551164e-01  7.7105830261825747e-01  1.5959104789696883e+00  1.0461159612871658e+00  7.0812146640446849e-01  2.9956112373257854e-01  2.9231738696026528e+00  1.0559920023653422e+00  1.1988609886623811e+00  2.8273416337275497e+00  9.4124757423246697e-01  2.1228200296736395e+00  2.5990199681697010e+00  2.8340798065880352e-01  2.3656949445022293e+00  9.4884522373140301e-01  2.8498274968744246e+00  2.9751009237842143e+00  6.6847102088394850e-01  7.1208890682019998e-01  3.1098519106565115e-01  2.2493042959805689e+00  2.7674442672041283e-01  1.8723299271545286e+00  2.5724553911235284e+00  2.3173518149933310e+00  2.0533379408864612e+00  1.3731053854578468e+00  6.5229183628448384e-01  1.2441466340285861e+00  2.9009759123895623e-01  1.3623662803639891e+00  1.6444542566781442e+00  1.9791663103390955e+00  2.0278676521138195e+00  1.7714566606498439e+00  1.0717259955997644e+00  1.2603583329241148e+00  1.4151214535895809e+00  6.4741589638352348e-01  2.6623286187736142e+00  2.7315440665314705e-01  2.7865371284114619e+00  2.0531651735479088e+00  1.6138166329264114e+00  1.7272388818700837e+00  1.8680288256305746e+00  2.0317112371633415e+00  1.3978507204954569e+00  2.6179370968579128e+00  2.8443915585043684e+00  1.1216078388558843e+00  2.7982030769379002e-01  2.3087032997677701e+00  6.7182510386933680e-01  2.0678245030822011e+00  2.6620503448813673e+00  1.1296582876707972e+00  2.7638518155982919e+00  2.9245640509022470e+00  1.4276271327453109e+00  2.4784619958790075e+00  1.3058389186362391e+00  1.4140739523662365e+00  1.0869014550830489e+00  1.5944556352789385e+00  1.3882177327482423e+00  2.1980315147518930e+00  2.8498244550457241e-01  2.3602703520503505e+00  7.3427527726096142e-01  1.2981915383066271e+00  1.9516935660037189e+00  2.8489655061513408e-01  6.9019861273356831e-01  2.9165087803444072e+00  8.8132960817506