<?xml version="1.0"?>
<VTKFile type="UnstructuredGrid"  version="0.1"  >
<UnstructuredGrid>
<Piece  NumberOfPoints="387" NumberOfCells="708">
<Points>
<DataArray  type="Float64"  NumberOfComponents="3"  format="ascii">0 3 0  0 -3 0  6 -3 0  6 3 0  3 -3 0  6 0 0  3 3 0  0 0 0  3 0 0  0 -1.5 0  1.5 -3 0  1.5 3 0  0 1.5 0  6 -1.5 0  4.5 -3 0  6 1.5 0  4.5 3 0  4.25 -1.25 0  1.75 1.25 0  2.25 -1.5 0  4.5 0.75 0  1.541666666666667 -0.2083333333333333 0  3.219827586206896 1.521551724137931 0  1.125 -1.875 0  4.875 1.875 0  0.8702651515151515 0.631628787878788 0  2.25 2.214285714285714 0  3.316176470588236 -1.904411764705882 0  5.214285714285714 -0.75 0  5.03125 -2.03125 0  0.96875 2.03125 0  4.041666666666667 -0.2083333333333333 0  0.8205128205128206 -0.9134615384615387 0  3.942582294752138 2.189194098250713 0  3.061487638533674 -0.968243819266837 0  2.192708333333333 0.4427083333333334 0  4.157850026972511 -2.182329047049442 0  2.331456616463011 -0.5285296485744057 0  3.654761904761905 0.5654761904761902 0  5.25 1.125 0  2.563673341677096 -2.280663329161452 0  5.126674107142857 0.1283482142857142 0  0.75 -3 0  0 -2.25 0  6 2.25 0  5.25 3 0  0.7680051888903191 -0.1384245958639337 0  1.617229471026718 -1.006949429867069 0  4.218940341429579 1.468686552856807 0  3.75 -3 0  2.25 -3 0  0.75 3 0  5.25 -3 0  6 -0.75 0  0 -0.75 0  0 0.75 0  2.25 3 0  6 -2.25 0  0 2.25 0  3.75 3 0  6 0.75 0  1.787573018358365 -2.279142327213878 0  3.195025188237337 2.273430909158844 0  2.528159645294386 1.151699106559287 0  1.041598427383826 1.322848427383826 0  1.520951704545454 0.4634232954545453 0  1.580357142857143 2.325892857142857 0  4.919642857142857 -1.361607142857143 0  4.54981623521892 -0.6483700862895494 0  2.99317863826574 0.6697091957925523 0  3.450169349029507 -0.4574865881858001 0  3.605016126014028 -1.323102984840902 0  2.745144658907412 1.882241931337371 0  0.4898065586600511 1.092777516238393 0  0.5 -1.875 0  1.217028489597945 -2.469323836800685 0  1.659912685567181 -1.604738056701542 0  5.4375 1.6875 0  5.34375 2.34375 0  4.52741779500503 2.384139265001677 0  3.375 -2.514804579549941 0  0.5446428571428571 -2.455357142857143 0  2.766554087216865 -1.745795909102064 0  4.525516559010988 0.1490283123570637 0  3.87554132162248 -0.8280516069565407 0  4.53622906132958 -1.76963146596888 0  0.4243951612903226 1.875 0  0.554851858345021 2.446861709948876 0  5.575604838709677 -1.875 0  5.445148141654979 -2.446861709948876 0  4.875 -2.575604838709677 0  1.440573466105381 1.721823466105381 0  2.193519495405082 1.631799415080963 0  5.472630128027442 -1.330813078900983 0  4.750126894286386 1.343813447143193 0  5.607142857142857 -0.375 0  2.625 2.607142857142857 0  0.3921763197810531 0.375 0  5.60901753622775 0.3750000000000001 0  1.125 2.613454943235572 0  3.701856738980915 1.163867513386733 0  3.736112850688509 1.696746876851408 0  3.519183195491339 0.06065128742606851 0  3.973620778217027 -1.693401606145563 0  0.8125 -1.444978632478633 0  1.256657745408029 -0.6381828923025001 0  0 -1.125 0  5.019997778514942 0.6475044429701156 0  4.125 3 0  1.285569332703024 0.8955310332120207 0  0 -0.375 0  0.4638922275641027 -0.5625 0  2.056635259780241 -0.07226025978024064 0  2.130475508371123 -1.000827820434028 0  2.677484372338113 -1.267299126394495 0  2.848680878891876 -0.4956836878192376 0  4.937901885089369 -0.3340245904575954 0  4.393563081308854 1.919544166973803 0  4.053859126323572 0.2813938488760716 0  1.181051704329518 0.1167440895674965 0  1.971354166666667 2.607142857142857 0  4.875 3 0  2.519350561152006 0.08093582719875507 0  3.139443301924015 -1.442524927271905 0  6 2.625 0  1.849169256239503 1.945480934753207 0  1.867196483071171 0.7892354369530077 0  1.192506522009051 -1.184888428863342 0  3.375 3 0  3.603234392481833 2.536866305538572 0  3.846752908916648 -2.537707634073423 0  2.014339897513945 -1.886932065281681 0  4.038392037966526 0.8363324773944992 0  4.421242701722609 -2.552534687860327 0  3.715389848650903 -2.108856956172843 0  2.985668138820625 1.127780908772207 0  0.4500794934449803 -1.173696061598557 0  3.366760888116476 0.8891914618875614 0  1.869163043700093 -0.6107175804171328 0  2.175114838273305 -2.53928723780967 0  3.014417665538299 -2.241523065744933 0  2.625 -3 0  2.819968145332426 -2.617202329573456 0  5.625 1.3125 0  5.563263538826679 0.814027077653358 0  5.625 3 0  2.550041671270923 0.7074928970804664 0  4.014583091741168 2.59891853892166 0  0.6440729668673318 1.499523832583132 0  5.219449799568244 -1.660557808485412 0  3.474012636702472 -0.9300738420779746 0  0.8125 -2.142857142857143 0  1.875 -3 0  4.945010515846405 2.554471797033147 0  2.611388969012422 -0.8478354915063726 0  3.223746055611014 0.3371683159691745 0  4.843939757110898 -0.9483610977948225 0  4.66556954816842 -2.220888354477256 0  4.125 -3 0  4.448108395110625 -0.2524000502731018 0  5.63671875 2.05078125 0  2.822484133964224 1.491327727709286 0  3.378213092764193 1.903125093887009 0  5.607142857142858 -0.9231200445788541 0  2.12639693023183 1.100450516019641 0  5.625 -3 0  0.375 3 0  0 2.625 0  6 -2.625 0  0.3931307155906299 -0.01856779822591927 0  0.7651723094668359 0.253768144801553 0  0.8549199714190221 -0.5218333744252657 0  1.421989550604507 -2.133299471886336 0  1.582611957351803 -2.615166692128227 0  4.420331038793115 1.133144382396504 0  0.375 -3 0  0 -2.625 0  5.078156723571596 1.54697017071479 0  1.877250715260938 -1.288801575378032 0  2.409169073010687 -1.916147168931784 0  1.146151077069952 -0.268000681695328 0  1.726784828652036 0.1335728643263411 0  2.745628549924675 0.3838821021397905 0  3.011490900297165 2.613625569196862 0  5.62463365164608 -4.137655439684362e-05 0  1.875 3 0  1.125 3 0  6 0.375 0  2.625 3 0  6 -1.125 0  6 -0.375 0  4.875 -3 0  6 -1.875 0  3.375 -3 0  1.125 -3 0  0 -1.875 0  0 0.375 0  0 1.125 0  0 1.875 0  6 1.125 0  6 1.875 0  4.813017731148975 0.9677363687196439 0  2.807371623148303 2.264962208227767 0  0.3692953377255688 0.7436406761680247 0  5.615625 2.615625 0  0.9395725521479794 0.9812935874921043 0  1.390920759130215 1.238984550166515 0  0.9588795022085095 1.672288500195331 0  0.87712392565124 -2.641031728267331 0  0.3665732993114588 -1.532068934251388 0  1.841944504733106 1.591700334213738 0  4.832970185136452 0.3385359233091246 0  4.169083540479082 -0.5746148619765254 0  5.281697083409333 -0.2046640461936881 0  4.072845380968044 1.784516523483641 0  1.293029195762321 -1.543079049035419 0  4.878733886054284 -1.720697370582964 0  3.609167475697567 -1.687579152754035 0  4.836981942878573 2.222259978217028 0  4.204938267037067 -0.9128589669335569 0  5.183079748175263 -1.111742407358677 0  1.22880920402559 2.273525645756405 0  1.469404041858679 2.654509729682302 0  4.566761045622856 -1.414165869120005 0  4.531680518427715 1.606803989975667 0  1.918929241273175 2.27471131819245 0  3.526908551984126 2.207147627530056 0  1.85683899811842 0.4533569963423589 0  1.173935704088662 0.4636872214645547 0  2.116602160898525 -2.207718541460878 0  4.51821874648995 -1.042568353750147 0  2.721551512787618 -0.1859357475290837 0  5.294921875 2.001953125 0  5.288671874999999 2.670703125 0  2.199940744527116 0.7756512213396931 0  4.090519467638897 1.163401080812838 0  2.298177083333333 2.670581371753247 0  2.484362362207526 -2.687319997637033 0  3.300530569898859 1.207053005217563 0  3.936078051808127 -1.362164062673065 0  5.341218841330105 0.5689885832563615 0  4.226314635599414 0.5638853401248238 0  2.524510956818563 1.635483567726497 0  0.3219546452225031 1.389066019009203 0  3.139061555368706 -0.3133905221155423 0  3.145569907612562 -0.6461828528638952 0  3.701427442033566 -0.2272880199383185 0  1.686782510365738 -1.934662341426927 0  2.427696494631844 1.944064773844184 0  3.901817839425732 1.422433381251312 0  2.356489883772755 -0.2025512972825912 0  4.820757576351118 -0.01647699434507374 0  3.064415631228375 1.809719380809516 0  4.643002705009462 2.69782572459795 0  4.31624250429496 2.728112685900672 0  1.520100694408069 -1.314302747998057 0  3.754559308601717 -0.5375020107416889 0  0.25 -2.0625 0  0.8125 -1.826636904761905 0  4.861738621091127 -0.6367294570749906 0  1.545149590740081 2.015832101819233 0  3.857113324620078 0.04127675193819436 0  0.2479605082936806 -0.9375 0  4.21293081604216 2.352874368135467 0  3.123697687162562 -2.708090473740421 0  3.415275466010259 -2.202892416689829 0  3.601103065320932 -2.727566580522146 0  1.558629964945672 -0.5289921609136927 0  3.324859026263307 -1.198136798699183 0  2.424350759683917 -1.092246517929194 0  2.746461744851735 0.9398108087856579 0  0.8882026075771248 2.364936378889839 0  0.8066140242673685 2.679750706449505 0  4.504454978490482 0.4491616076730165 0  4.26881784709759 -0.009649566552704852 0  1.3125 -2.75919801263958 0  1.120577805361368 -2.179971784090952 0  3.734048623985226 0.8602850349907256 0  3.527828882622877 1.432983527791925 0  1.959527908877504 -1.578124930685265 0  0.7602573574724077 1.220872343399509 0  0.6691217533356228 0.8531987603309893 0  1.877213035764122 -2.564340152892596 0  3.32172153715047 2.685939810104955 0  4.285565286275464 -1.569057178671076 0  4.227521511146333 -1.876903861267543 0  5.34375 1.40625 0  5.71875 1.59375 0  1.56245959534423 0.766197796710638 0  0.2458241530773257 2.4375 0  0.2794123857609179 2.138568368155198 0  5.754175846922674 -2.4375 0  5.720587614239082 -2.138568368155198 0  0.6472458227887359 2.124973059628837 0  5.124241021325378 -2.352544055105642 0  5.189172233440652 -2.675873509996353 0  5.364643151640443 -2.12768524739804 0  2.298896485720138 1.348573610321417 0  0.6008689899200503 -2.745193425346304 0  0.307092513690391 -2.651812055231556 0  0.2683745826107009 -2.363146293324415 0  0.5223214285714285 -2.165178571428571 0  0.3925308914031174 2.699891746740618 0  5.607469108596883 -2.699891746740618 0  2.138365140930822 1.917102089073091 0  1.25507379660067 1.953406658386351 0  4.135759889512124 -2.476847355718572 0  0.5330865684534913 -0.8980875812659357 0  2.548249345531056 -1.538893887888457 0  2.67686064875775
[...]
<PointData  Scalars="f_30-2"> 
<DataArray  type="Float64"  Name="f_30-2"  format="ascii">1.0000000000000000e+01  0.0000000000000000e+00  0.0000000000000000e+00  1.0000000000000000e+01  0.0000000000000000e+00  5.0000911947715876e+00  1.0000000000000000e+01  5.0000911947715876e+00  5.0000916707320515e+00  2.5000645338151122e+00  0.0000000000000000e+00  1.0000000000000000e+01  7.5000645322031145e+00  2.5000645338151122e+00  0.0000000000000000e+00  7.5000645322031145e+00  1.0000000000000000e+01  2.9167389311899798e+00  7.0834062843665659e+00  2.5000648384066366e+00  6.2500844713146986e+00  4.6528686993703952e+00  7.5359836757089811e+00  1.8750505792920238e+00  8.1250509889283045e+00  6.0528012003677691e+00  8.6905129925999081e+00  1.8260297739592692e+00  3.7500845092070221e+00  1.6146276518462916e+00  8.3854611717564680e+00  4.6528685256564231e+00  3.4776451587845538e+00  8.6486947153118088e+00  3.3863398422964481e+00  5.7379362834865484e+00  1.3628228190438680e+00  4.1192052009233526e+00  5.9425477991898870e+00  6.8750762502208298e+00  1.1989279814642202e+00  5.2140050180728021e+00  0.0000000000000000e+00  1.2500349498233945e+00  8.7500350621100775e+00  1.0000000000000000e+01  4.7693834144514300e+00  3.3218299760466499e+00  7.4478768393796360e+00  0.0000000000000000e+00  0.0000000000000000e+00  1.0000000000000000e+01  0.0000000000000000e+00  3.7500843718869561e+00  3.7500843718869561e+00  6.2500843211802888e+00  1.0000000000000000e+01  1.2500349498233945e+00  8.7500350621100775e+00  1.0000000000000000e+01  6.2500843211802888e+00  1.2014631030841856e+00  8.7890856022955219e+00  6.9195740276340603e+00  7.2048179444314195e+00  5.7724611166981576e+00  8.8765199268979273e+00  2.7307238600368144e+00  3.9194693844117996e+00  6.1162679582149506e+00  4.2376112143962947e+00  2.7948985937118431e+00  8.1371205869943957e+00  6.8213731212517095e+00  1.8750507047189018e+00  8.8448524942850881e-01  2.3254976466843216e+00  7.8125582870524131e+00  8.9062807936340125e+00  8.9735945461870035e+00  8.0868190691974340e-01  9.0776367124307855e-01  2.0903957514488054e+00  5.2484717804311352e+00  3.6199966336372462e+00  2.0506690009302870e+00  8.1250509618910964e+00  9.0781290456340127e+00  1.8750506005649035e+00  9.2192307301185694e-01  7.0734542856668026e-01  7.8697626698714913e+00  7.7197259189696137e+00  2.7820482937035580e+00  7.2397589462607721e+00  4.3750895316949103e+00  9.3452567758756828e+00  5.6250899605102669e+00  5.6250896015804237e+00  9.3557766966478155e+00  6.9398541119668717e+00  7.8279692861154953e+00  5.1011768593693043e+00  2.1777217223668059e+00  2.5917686013229577e+00  3.9364481028478475e+00  3.1250758931772751e+00  6.0792605464654015e+00  1.0000000000000000e+01  6.4926336685364925e+00  4.3750896729359461e+00  4.0625873732541482e+00  4.8796576581528610e+00  3.3320328300585578e+00  2.8879068773625702e+00  4.1739489629932294e+00  4.4433823060885214e+00  8.1992896069660777e+00  5.4690801180233271e+00  5.1946648819882348e+00  9.3452568843262078e+00  1.0000000000000000e+01  5.1349844383953158e+00  2.5958587289848438e+00  9.3750178816838297e+00  8.2425164241978148e+00  6.3154765045597347e+00  3.0252603313775617e+00  1.0000000000000000e+01  9.2281325027975711e+00  7.7050911408860401e-01  1.8551633827599701e+00  6.3939703589900301e+00  7.4579669672471938e-01  1.4852794907891533e+00  6.8797110430174362e+00  3.0439144691603470e+00  6.4820676502961696e+00  3.9822241121162412e+00  7.6787637213060689e-01  1.2641635783458376e+00  0.0000000000000000e+00  6.3801429539085963e-01  7.1875708047639844e+00  6.3567955775597067e+00  1.0000000000000000e+01  6.1792402839102785e+00  9.3315500185023019e+00  7.4992710363348705e+00  2.2324625145981765e+00  3.4499577360175402e+00  1.4286110223197230e+00  0.0000000000000000e+00  9.2574741580458966e+00  3.5870234513218637e+00  5.5620370793726606e+00  3.4194783575344601e+00  1.2985555937993836e+00  0.0000000000000000e+00  4.5794239541844082e+00  8.4180125237498853e+00  7.4856113480307069e+00  8.1719250014887379e+00  3.4615471911508982e+00  6.8341608638679352e+00  0.0000000000000000e+00  1.0000000000000000e+01  9.3750178816838297e+00  6.2501770029149772e-01  4.9691451116178795e+00  5.4230376174363917e+00  4.1303658919355755e+00  1.4445409835249974e+00  6.4140709403418905e-01  6.8886500896364549e+00  0.0000000000000000e+00  6.2501770029149772e-01  7.5783469120236155e+00  2.8520685100627210e+00  1.8064703111311162e+00  4.5534227282082274e+00  5.2227128189087848e+00  5.6398931667476777e+00  9.3560610403878055e+00  5.0000225874821247e+00  1.0000000000000000e+01  1.0000000000000000e+01  5.6250899647758139e+00  1.0000000000000000e+01  3.1250758931772751e+00  4.3750896729359461e+00  0.0000000000000000e+00  1.8750506267560592e+00  0.0000000000000000e+00  0.0000000000000000e+00  1.8750506267560592e+00  5.6250899647758139e+00  6.8750764042329635e+00  8.1250510744521112e+00  6.8750764042329635e+00  8.1250510744521112e+00  6.6129739967784094e+00  8.7749715352185280e+00  6.2394854710310623e+00  9.3593933988111377e+00  6.6355690396439773e+00  7.0650471059472055e+00  7.7872061443472571e+00  5.9829751595070269e-01  2.4466151943044157e+00  7.6528954731161569e+00  5.5643166379299247e+00  4.0423958281153558e+00  4.6589842511565243e+00  7.9742487235693416e+00  2.4282647125097636e+00  2.1322276836068541e+00  2.1874259875843087e+00  8.7038029820385407e+00  3.4786494560269752e+00  3.1471722550959806e+00  8.7892434453573767e+00  9.4241994402308560e+00  2.6431242071614669e+00  7.6780678471137831e+00  8.7912194528017675e+00  8.6786163836286452e+00  5.7556837432372570e+00  5.7729008659754237e+00  1.3205059266715231e+00  3.2624641440554845e+00  4.6901976081624426e+00  8.3366343199556532e+00  9.4511876407126589e+00  6.2928362658503652e+00  6.9390768927840165e+00  9.4509846812797704e+00  5.2114817676763958e-01  7.0118288523537942e+00  2.7297955308443829e+00  5.9484013675518712e+00  5.9398964357418302e+00  7.7258661248067435e+00  7.3151786797847640e+00  4.4777724230845557e+00  3.9231148028343030e+00  4.6212772538805185e+00  1.7756109239813695e+00  8.2401558888554192e+00  7.3707896335874681e+00  4.6625053874582605e+00  4.9726295697331766e+00  8.0162524633272181e+00  9.4963906482750691e+00  9.5468674751384537e+00  2.8095656431975295e+00  4.1042513154016875e+00  1.5625428422445158e+00  1.9556576032327495e+00  3.9388705657879441e+00  8.3597652357244510e+00  5.0688858679971593e+00  3.4375806116317320e+00  8.9214878390370060e+00  4.8652972782102549e-01  1.3285495744452698e+00  4.5406866010654073e-01  4.1184340819146179e+00  3.0031792360766585e+00  3.1796656790756410e+00  6.5664319182928335e+00  8.9415905743852129e+00  9.4662664631251605e+00  5.7486914947601226e+00  4.9840087112756173e+00  4.0134807574642173e-01  1.3667516285457861e+00  6.4338909360284706e+00  7.3883730880784793e+00  2.3698537365276966e+00  7.0348607783728037e+00  6.4220806508503463e+00  7.2612032293507633e-01  9.4765813751780943e+00  2.3849668387796066e+00  1.8718773164248697e+00  7.3438177402820255e+00  7.6563116721461357e+00  6.2770804916405991e+00  9.0625267103324862e+00  8.5643204592483162e+00  9.3752645494126563e-01  1.4357590810270593e+00  8.5416623114031989e+00  1.0791234353654360e+00  5.4022623555243510e-01  1.4538982719259830e+00  7.2476924908142299e+00  4.2468973246532293e-01  5.8032978478815023e-01  1.0614527385404338e+00  1.3914075734881013e+00  9.4998339089529527e+00  5.0019471015164707e-01  8.1952194629579669e+00  8.2557255732302472e+00  8.7194572489548583e-01  3.5032687874963182e+00  2.4352403098655535e+00  1.6372358001789464e+00  1.7768453151532022e+00  7.9683563757763807e+00  5.9075784368123641e+00  5.9928937622349814e+00  4.5016141803859631e+00  7.2717601327293213e+00  2.3796018902133795e+00  7.7684591359526500e+00  3.5367266617938087e-01  3.0226817082398783e+00  8.8943103373742414e+00  1.9257807474473034e+00  7.5807455314885877e+00  7.4635128333848675e+00  3.2239159452257651e+00  6.3956046236957551e+00  5.3560652235508472e+00  1.7083726924238609e+00  5.4706386329053984e+00  8.8861331763653020e+00  1.5306142735122898e+00  5.5979785566162352e+00  8.2651974261161421e+00  3.5020480790620692e+00  2.6900329251551423e+00  3.4328607016873780e-01  4.1855147561258637e+00  4.5349297675986300e+00  3.9183194041683942e+00  2.8125704065491393e+00  1.0207370198397008e+00  5.0986603703505686e+00  7.6824054086970763e+00  6.9817212732637284e+00  1.7192822815919004e+00  9.6726284856613809e+00  5.9543548381314952e+00  5.3125909416638519e+00  5.4901172978825405e+00  5.9375877595374567e+00  4.2751140165065538e+00  4.3908698703400889e-01  8.3761408718961388e+00  3.2944636877586470e-01  6.5625807718766964e+00  4.6910229348398342e+00  9.6821681975004363e+00  3.0368893426236681e+00  2.2737132998445913e+00  2.2737134639183996e+00  9.6777466717755551e+00  6.5625808431340698e+00  4.5855194037614995e+00  5.3255810793274758e+00  4.6729647258601226e+00  9.6722563989112125e+00  6.1793976678434595e+00  5.6554425283584955e+00  2.2826037870864879e+00  9.6851110779729055e+00  8.3911864783943049e+00  3.1780605331090190e+00  8.4610252423208756e+00  5.0703442697169132e+00  5.9131870993537570e+00  1.0123622336654912e+00  8.6713959500854365e+00  5.2941630542949740e+00  4.3648024352245240e+00  6.7315809204371613e+00  3.7416420387455647e+00  3.6979019063300416e+00  3.2821217710452975e+00  2.8952574199769070e+00  3.6524696104582119e+00  3.0302808801257801e+00  3.8224091393272372e+00  </DataArray> 
</PointData> 
</Piece>
</UnstructuredGrid>
</VTKFile>