<?xml version="1.0"?>
<VTKFile type="UnstructuredGrid"  version="0.1"  >
<UnstructuredGrid>
<Piece  NumberOfPoints="387" NumberOfCells="708">
<Points>
<DataArray  type="Float64"  NumberOfComponents="3"  format="ascii">0 3 0  0 -3 0  6 -3 0  6 3 0  3 -3 0  6 0 0  3 3 0  0 0 0  3 0 0  0 -1.5 0  1.5 -3 0  1.5 3 0  0 1.5 0  6 -1.5 0  4.5 -3 0  6 1.5 0  4.5 3 0  4.25 -1.25 0  1.75 1.25 0  2.25 -1.5 0  4.5 0.75 0  1.541666666666667 -0.2083333333333333 0  3.219827586206896 1.521551724137931 0  1.125 -1.875 0  4.875 1.875 0  0.8702651515151515 0.631628787878788 0  2.25 2.214285714285714 0  3.316176470588236 -1.904411764705882 0  5.214285714285714 -0.75 0  5.03125 -2.03125 0  0.96875 2.03125 0  4.041666666666667 -0.2083333333333333 0  0.8205128205128206 -0.9134615384615387 0  3.942582294752138 2.189194098250713 0  3.061487638533674 -0.968243819266837 0  2.192708333333333 0.4427083333333334 0  4.157850026972511 -2.182329047049442 0  2.331456616463011 -0.5285296485744057 0  3.654761904761905 0.5654761904761902 0  5.25 1.125 0  2.563673341677096 -2.280663329161452 0  5.126674107142857 0.1283482142857142 0  0.75 -3 0  0 -2.25 0  6 2.25 0  5.25 3 0  0.7680051888903191 -0.1384245958639337 0  1.617229471026718 -1.006949429867069 0  4.218940341429579 1.468686552856807 0  3.75 -3 0  2.25 -3 0  0.75 3 0  5.25 -3 0  6 -0.75 0  0 -0.75 0  0 0.75 0  2.25 3 0  6 -2.25 0  0 2.25 0  3.75 3 0  6 0.75 0  1.787573018358365 -2.279142327213878 0  3.195025188237337 2.273430909158844 0  2.528159645294386 1.151699106559287 0  1.041598427383826 1.322848427383826 0  1.520951704545454 0.4634232954545453 0  1.580357142857143 2.325892857142857 0  4.919642857142857 -1.361607142857143 0  4.54981623521892 -0.6483700862895494 0  2.99317863826574 0.6697091957925523 0  3.450169349029507 -0.4574865881858001 0  3.605016126014028 -1.323102984840902 0  2.745144658907412 1.882241931337371 0  0.4898065586600511 1.092777516238393 0  0.5 -1.875 0  1.217028489597945 -2.469323836800685 0  1.659912685567181 -1.604738056701542 0  5.4375 1.6875 0  5.34375 2.34375 0  4.52741779500503 2.384139265001677 0  3.375 -2.514804579549941 0  0.5446428571428571 -2.455357142857143 0  2.766554087216865 -1.745795909102064 0  4.525516559010988 0.1490283123570637 0  3.87554132162248 -0.8280516069565407 0  4.53622906132958 -1.76963146596888 0  0.4243951612903226 1.875 0  0.554851858345021 2.446861709948876 0  5.575604838709677 -1.875 0  5.445148141654979 -2.446861709948876 0  4.875 -2.575604838709677 0  1.440573466105381 1.721823466105381 0  2.193519495405082 1.631799415080963 0  5.472630128027442 -1.330813078900983 0  4.750126894286386 1.343813447143193 0  5.607142857142857 -0.375 0  2.625 2.607142857142857 0  0.3921763197810531 0.375 0  5.60901753622775 0.3750000000000001 0  1.125 2.613454943235572 0  3.701856738980915 1.163867513386733 0  3.736112850688509 1.696746876851408 0  3.519183195491339 0.06065128742606851 0  3.973620778217027 -1.693401606145563 0  0.8125 -1.444978632478633 0  1.256657745408029 -0.6381828923025001 0  0 -1.125 0  5.019997778514942 0.6475044429701156 0  4.125 3 0  1.285569332703024 0.8955310332120207 0  0 -0.375 0  0.4638922275641027 -0.5625 0  2.056635259780241 -0.07226025978024064 0  2.130475508371123 -1.000827820434028 0  2.677484372338113 -1.267299126394495 0  2.848680878891876 -0.4956836878192376 0  4.937901885089369 -0.3340245904575954 0  4.393563081308854 1.919544166973803 0  4.053859126323572 0.2813938488760716 0  1.181051704329518 0.1167440895674965 0  1.971354166666667 2.607142857142857 0  4.875 3 0  2.519350561152006 0.08093582719875507 0  3.139443301924015 -1.442524927271905 0  6 2.625 0  1.849169256239503 1.945480934753207 0  1.867196483071171 0.7892354369530077 0  1.192506522009051 -1.184888428863342 0  3.375 3 0  3.603234392481833 2.536866305538572 0  3.846752908916648 -2.537707634073423 0  2.014339897513945 -1.886932065281681 0  4.038392037966526 0.8363324773944992 0  4.421242701722609 -2.552534687860327 0  3.715389848650903 -2.108856956172843 0  2.985668138820625 1.127780908772207 0  0.4500794934449803 -1.173696061598557 0  3.366760888116476 0.8891914618875614 0  1.869163043700093 -0.6107175804171328 0  2.175114838273305 -2.53928723780967 0  3.014417665538299 -2.241523065744933 0  2.625 -3 0  2.819968145332426 -2.617202329573456 0  5.625 1.3125 0  5.563263538826679 0.814027077653358 0  5.625 3 0  2.550041671270923 0.7074928970804664 0  4.014583091741168 2.59891853892166 0  0.6440729668673318 1.499523832583132 0  5.219449799568244 -1.660557808485412 0  3.474012636702472 -0.9300738420779746 0  0.8125 -2.142857142857143 0  1.875 -3 0  4.945010515846405 2.554471797033147 0  2.611388969012422 -0.8478354915063726 0  3.223746055611014 0.3371683159691745 0  4.843939757110898 -0.9483610977948225 0  4.66556954816842 -2.220888354477256 0  4.125 -3 0  4.448108395110625 -0.2524000502731018 0  5.63671875 2.05078125 0  2.822484133964224 1.491327727709286 0  3.378213092764193 1.903125093887009 0  5.607142857142858 -0.9231200445788541 0  2.12639693023183 1.100450516019641 0  5.625 -3 0  0.375 3 0  0 2.625 0  6 -2.625 0  0.3931307155906299 -0.01856779822591927 0  0.7651723094668359 0.253768144801553 0  0.8549199714190221 -0.5218333744252657 0  1.421989550604507 -2.133299471886336 0  1.582611957351803 -2.615166692128227 0  4.420331038793115 1.133144382396504 0  0.375 -3 0  0 -2.625 0  5.078156723571596 1.54697017071479 0  1.877250715260938 -1.288801575378032 0  2.409169073010687 -1.916147168931784 0  1.146151077069952 -0.268000681695328 0  1.726784828652036 0.1335728643263411 0  2.745628549924675 0.3838821021397905 0  3.011490900297165 2.613625569196862 0  5.62463365164608 -4.137655439684362e-05 0  1.875 3 0  1.125 3 0  6 0.375 0  2.625 3 0  6 -1.125 0  6 -0.375 0  4.875 -3 0  6 -1.875 0  3.375 -3 0  1.125 -3 0  0 -1.875 0  0 0.375 0  0 1.125 0  0 1.875 0  6 1.125 0  6 1.875 0  4.813017731148975 0.9677363687196439 0  2.807371623148303 2.264962208227767 0  0.3692953377255688 0.7436406761680247 0  5.615625 2.615625 0  0.9395725521479794 0.9812935874921043 0  1.390920759130215 1.238984550166515 0  0.9588795022085095 1.672288500195331 0  0.87712392565124 -2.641031728267331 0  0.3665732993114588 -1.532068934251388 0  1.841944504733106 1.591700334213738 0  4.832970185136452 0.3385359233091246 0  4.169083540479082 -0.5746148619765254 0  5.281697083409333 -0.2046640461936881 0  4.072845380968044 1.784516523483641 0  1.293029195762321 -1.543079049035419 0  4.878733886054284 -1.720697370582964 0  3.609167475697567 -1.687579152754035 0  4.836981942878573 2.222259978217028 0  4.204938267037067 -0.9128589669335569 0  5.183079748175263 -1.111742407358677 0  1.22880920402559 2.273525645756405 0  1.469404041858679 2.654509729682302 0  4.566761045622856 -1.414165869120005 0  4.531680518427715 1.606803989975667 0  1.918929241273175 2.27471131819245 0  3.526908551984126 2.207147627530056 0  1.85683899811842 0.4533569963423589 0  1.173935704088662 0.4636872214645547 0  2.116602160898525 -2.207718541460878 0  4.51821874648995 -1.042568353750147 0  2.721551512787618 -0.1859357475290837 0  5.294921875 2.001953125 0  5.288671874999999 2.670703125 0  2.199940744527116 0.7756512213396931 0  4.090519467638897 1.163401080812838 0  2.298177083333333 2.670581371753247 0  2.484362362207526 -2.687319997637033 0  3.300530569898859 1.207053005217563 0  3.936078051808127 -1.362164062673065 0  5.341218841330105 0.5689885832563615 0  4.226314635599414 0.5638853401248238 0  2.524510956818563 1.635483567726497 0  0.3219546452225031 1.389066019009203 0  3.139061555368706 -0.3133905221155423 0  3.145569907612562 -0.6461828528638952 0  3.701427442033566 -0.2272880199383185 0  1.686782510365738 -1.934662341426927 0  2.427696494631844 1.944064773844184 0  3.901817839425732 1.422433381251312 0  2.356489883772755 -0.2025512972825912 0  4.820757576351118 -0.01647699434507374 0  3.064415631228375 1.809719380809516 0  4.643002705009462 2.69782572459795 0  4.31624250429496 2.728112685900672 0  1.520100694408069 -1.314302747998057 0  3.754559308601717 -0.5375020107416889 0  0.25 -2.0625 0  0.8125 -1.826636904761905 0  4.861738621091127 -0.6367294570749906 0  1.545149590740081 2.015832101819233 0  3.857113324620078 0.04127675193819436 0  0.2479605082936806 -0.9375 0  4.21293081604216 2.352874368135467 0  3.123697687162562 -2.708090473740421 0  3.415275466010259 -2.202892416689829 0  3.601103065320932 -2.727566580522146 0  1.558629964945672 -0.5289921609136927 0  3.324859026263307 -1.198136798699183 0  2.424350759683917 -1.092246517929194 0  2.746461744851735 0.9398108087856579 0  0.8882026075771248 2.364936378889839 0  0.8066140242673685 2.679750706449505 0  4.504454978490482 0.4491616076730165 0  4.26881784709759 -0.009649566552704852 0  1.3125 -2.75919801263958 0  1.120577805361368 -2.179971784090952 0  3.734048623985226 0.8602850349907256 0  3.527828882622877 1.432983527791925 0  1.959527908877504 -1.578124930685265 0  0.7602573574724077 1.220872343399509 0  0.6691217533356228 0.8531987603309893 0  1.877213035764122 -2.564340152892596 0  3.32172153715047 2.685939810104955 0  4.285565286275464 -1.569057178671076 0  4.227521511146333 -1.876903861267543 0  5.34375 1.40625 0  5.71875 1.59375 0  1.56245959534423 0.766197796710638 0  0.2458241530773257 2.4375 0  0.2794123857609179 2.138568368155198 0  5.754175846922674 -2.4375 0  5.720587614239082 -2.138568368155198 0  0.6472458227887359 2.124973059628837 0  5.124241021325378 -2.352544055105642 0  5.189172233440652 -2.675873509996353 0  5.364643151640443 -2.12768524739804 0  2.298896485720138 1.348573610321417 0  0.6008689899200503 -2.745193425346304 0  0.307092513690391 -2.651812055231556 0  0.2683745826107009 -2.363146293324415 0  0.5223214285714285 -2.165178571428571 0  0.3925308914031174 2.699891746740618 0  5.607469108596883 -2.699891746740618 0  2.138365140930822 1.917102089073091 0  1.25507379660067 1.953406658386351 0  4.135759889512124 -2.476847355718572 0  0.5330865684534913 -0.8980875812659357 0  2.548249345531056 -1.538893887888457 0  2.67686064875775
[...]
<PointData  Scalars="f_30-2"> 
<DataArray  type="Float64"  Name="f_30-2"  format="ascii">1.0000000000000000e+01  0.0000000000000000e+00  0.0000000000000000e+00  1.0000000000000000e+01  0.0000000000000000e+00  4.9999999733099392e+00  1.0000000000000000e+01  4.9999999733099392e+00  4.9999999732773430e+00  2.4999999811133296e+00  0.0000000000000000e+00  1.0000000000000000e+01  7.4999999811312588e+00  2.4999999811133296e+00  0.0000000000000000e+00  7.4999999811312588e+00  1.0000000000000000e+01  2.9166666454929291e+00  7.0833333121294437e+00  2.4999999810941360e+00  6.2499999753486266e+00  4.6527777512543649e+00  7.5359195215552361e+00  1.8749999851665440e+00  8.1249999851710673e+00  6.0527146212091978e+00  8.6904761797925509e+00  1.8259803776832215e+00  3.7499999752980337e+00  1.6145833203648012e+00  8.3854166536942376e+00  4.6527777512372230e+00  3.4775640788772164e+00  8.6486568194047475e+00  3.3862602778960627e+00  5.7378471962554167e+00  1.3627849105023924e+00  4.1191172267249057e+00  5.9424602919336449e+00  6.8749999778321342e+00  1.1988944415722003e+00  5.2139136638647594e+00  0.0000000000000000e+00  1.2499999897763738e+00  8.7499999897808731e+00  1.0000000000000000e+01  4.7692923135982284e+00  3.3217509271448700e+00  7.4478109022311347e+00  0.0000000000000000e+00  0.0000000000000000e+00  1.0000000000000000e+01  0.0000000000000000e+00  3.7499999753301103e+00  3.7499999753301103e+00  6.2499999753318036e+00  1.0000000000000000e+01  1.2499999897763738e+00  8.7499999897808731e+00  1.0000000000000000e+01  6.2499999753318036e+00  1.2014294448048657e+00  8.7890515053464284e+00  6.9194984889011115e+00  7.2047473584109696e+00  5.7723721331699593e+00  8.8764880860090649e+00  2.7306547416893574e+00  3.9193831643071273e+00  6.1161819678959262e+00  4.2375223270610771e+00  2.7948283380618530e+00  8.1370698708128675e+00  6.8212958379368471e+00  1.8749999851732126e+00  8.8446026467485939e-01  2.3254365543513975e+00  7.8124999830640931e+00  8.9062499910136399e+00  8.9735654331997381e+00  8.0865902737881401e-01  9.0773808772815390e-01  2.0903401351869135e+00  5.2483804939748548e+00  3.6199139641993447e+00  2.0506142073581697e+00  8.1249999851599863e+00  9.0781028422915035e+00  1.8749999851869894e+00  9.2189714246675292e-01  7.0732526293028963e-01  7.8697057602898006e+00  7.7196656742804741e+00  2.7819781813346687e+00  7.2396890582289188e+00  4.3749999738101399e+00  9.3452380897853811e+00  5.6249999737951750e+00  5.6249999737989578e+00  9.3557582333578413e+00  6.9397791671080968e+00  7.8279114446023943e+00  5.1010854523552105e+00  2.1776639729008629e+00  2.5917022598083865e+00  3.9363618209658733e+00  3.1249999777990309e+00  6.0791740464452877e+00  1.0000000000000000e+01  6.4925516981710842e+00  4.3749999738013461e+00  4.0624999744511925e+00  4.8795662070306633e+00  3.3319536095004150e+00  2.8878347682796277e+00  4.1738604945058624e+00  4.4432923229382872e+00  8.1992402639435085e+00  5.4689897217250900e+00  5.1945734559432450e+00  9.3452380897763927e+00  1.0000000000000000e+01  5.1348930186804251e+00  2.5957917683784655e+00  9.3749999947878209e+00  8.2424682105847697e+00  6.3153923704435631e+00  3.0251859301302373e+00  1.0000000000000000e+01  9.2281105028176782e+00  7.7048727013447327e-01  1.8551132098298091e+00  6.3938874381496440e+00  7.4577551402019904e-01  1.4852383943542804e+00  6.8796348257493571e+00  3.0438398755261744e+00  6.4819857459364822e+00  3.9821373405957519e+00  7.6785459727221073e-01  1.2641282134103231e+00  0.0000000000000000e+00  6.3799611205557505e-01  7.1874999793288863e+00  6.3567117717056609e+00  1.0000000000000000e+01  6.1791548035601309e+00  9.3315308926356533e+00  7.4992063687476023e+00  2.2324036352766479e+00  3.4498769062330163e+00  1.4285714169790606e+00  0.0000000000000000e+00  9.2574529888856549e+00  3.5869408233239226e+00  5.5619471670023666e+00  3.4193981468581702e+00  1.2985193986171273e+00  0.0000000000000000e+00  4.5793332230604484e+00  8.4179687372405194e+00  7.4855461938698253e+00  8.1718751419519879e+00  3.4614665687288819e+00  6.8340841709990068e+00  0.0000000000000000e+00  1.0000000000000000e+01  9.3749999947878209e+00  6.2499999478722701e-01  4.9690536429309811e+00  5.4229468815190032e+00  4.1302776835330022e+00  1.4445008684785368e+00  6.4138884109544536e-01  6.8885739484826836e+00  0.0000000000000000e+00  6.2499999478722701e-01  7.5782835994246378e+00  2.8519973535356784e+00  1.8064213707418324e+00  4.5533321707151142e+00  5.2226214138703853e+00  5.6398034773839099e+00  9.3560426099591432e+00  4.9999310123783038e+00  1.0000000000000000e+01  1.0000000000000000e+01  5.6249999738032992e+00  1.0000000000000000e+01  3.1249999777990309e+00  4.3749999738013461e+00  0.0000000000000000e+00  1.8749999851633317e+00  0.0000000000000000e+00  0.0000000000000000e+00  1.8749999851633317e+00  5.6249999738032992e+00  6.8749999778027515e+00  8.1249999851621997e+00  6.8749999778027515e+00  8.1249999851621997e+00  6.6128939245188141e+00  8.7749370036807388e+00  6.2394011022671281e+00  9.3593749946577454e+00  6.6354892892425434e+00  7.0649742290195672e+00  7.7871474832210108e+00  5.9828044790033619e-01  2.4465517576794573e+00  7.6528338724044263e+00  5.5642265125505794e+00  4.0423085378704959e+00  4.6588932297634278e+00  7.9741941899384479e+00  2.4282015664997210e+00  2.1321710324516321e+00  2.1873680617881468e+00  8.7037666197874035e+00  3.4785683647419141e+00  3.1470959654454775e+00  8.7892093996799741e+00  9.4241828779948840e+00  2.6430568650811832e+00  7.6780066321354976e+00  8.7911855204228697e+00  8.6785793684602641e+00  5.7555949679544716e+00  5.7728120098447953e+00  1.3204690868113003e+00  3.2623860542603684e+00  4.6901070609043085e+00  8.3365885283300170e+00  9.4511718704167986e+00  6.2927520110117330e+00  6.9390017794660599e+00  9.4509689483330916e+00  5.2113333291962183e-01  7.0117549871751663e+00  2.7297265420058330e+00  5.9483142799507025e+00  5.9398088746821243e+00  7.7258059286928580e+00  7.3151100117135259e+00  4.4776824368015271e+00  3.9230285533825975e+00  4.6211866069403609e+00  1.7755627501489362e+00  8.2401079423796304e+00  7.3707222824590870e+00  4.6624144779713248e+00  4.9725383160746661e+00  8.0161989524416999e+00  9.4963762034598691e+00  9.5468544727105709e+00  2.8094953993941565e+00  4.1041632897594136e+00  1.5624999874183838e+00  1.9556051433562720e+00  3.9387842130207149e+00  8.3597201565456931e+00  5.0687945599069364e+00  3.4374999764348928e+00  8.9214572713429927e+00  4.8651587303109467e-01  1.3285126280338557e+00  4.5405569533793200e-01  4.1183463728197776e+00  3.0031053138816919e+00  3.1795891143156885e+00  6.5663513244697969e+00  8.9415606227722648e+00  9.4662511729605257e+00  5.7486026535136006e+00  4.9839173623978770e+00  4.0133664224878618e-01  1.3667136820748107e+00  6.4338083676180204e+00  7.3883058601026876e+00  2.3697917640989057e+00  7.0347872175844417e+00  6.4219979098075797e+00  7.2609973913053982e-01  9.4765663458021088e+00  2.3849046840414569e+00  1.8718268830789828e+00  7.3437499802394752e+00  7.6562499820700962e+00  6.2769963032719476e+00  9.0624999922538994e+00  8.5642806019588793e+00  9.3749999225696479e-01  1.4357193747664940e+00  8.5416217542351927e+00  1.0790932326163361e+00  5.4021081216186229e-01  1.4538579092108563e+00  7.2476226635761343e+00  4.2467762087190297e-01  5.8031323644090360e-01  1.0614228357235995e+00  1.3913690363277871e+00  9.4998195737223465e+00  5.0018041792035328e-01  8.1951701341092189e+00  8.2556777500592631e+00  8.7192106659150792e-01  3.5031873407479335e+00  2.4351768350175766e+00  1.6371910654988353e+00  1.7767971669733682e+00  7.9683016072554329e+00  5.9074906482852301e+00  5.9928065939571917e+00  4.5015238403927391e+00  7.2716910702782238e+00  2.3795398857192693e+00  7.7684000852458057e+00  3.5366263145439519e-01  3.0226073207048345e+00  8.8942791586827035e+00  1.9257291277145294e+00  7.5806822185098257e+00  7.4634475772365709e+00  3.2238385990925154e+00  6.3955217549742027e+00  5.3559746098042460e+00  1.7083261503782141e+00  5.4705481755546170e+00  8.8861016014112586e+00  1.5305720156967306e+00  5.5978888981227231e+00  8.2651500033292873e+00  3.5019667619996371e+00  2.6899648635664306e+00  3.4327625047279919e-01  4.1854265784415965e+00  4.5348396146593553e+00  3.9182332710261023e+00  2.8124999793695911e+00  1.0207083295985844e+00  5.0985689071888016e+00  7.6823445215384361e+00  6.9816468527273754e+00  1.7192355721343162e+00  9.6726190448867886e+00  5.9542674445826247e+00  5.3124999734305272e+00  5.4900265265192036e+00  5.9374999744395911e+00  4.2750251170937537e+00  4.3907448144121092e-01  8.3760961476651961e+00  3.2943695013555768e-01  6.5624999764483123e+00  4.6909321604731788e+00  9.6821591029003624e+00  3.0368150805079370e+00  2.2736537014947538e+00  2.2736537014737812e+00  9.6777374051953906e+00  6.5624999764446219e+00  4.5854287927082504e+00  5.3254901985959737e+00  4.6728739815642566e+00  9.6722470210707652e+00  6.1793123181502718e+00  5.6553532243703852e+00  2.2825437570668248e+00  9.6851020325080466e+00  8.3911421781200435e+00  3.1779837557525030e+00  8.4609827607829331e+00  5.0702526615763750e+00  5.9130991912752293e+00  1.0123338110132931e+00  8.6713587069643552e+00  5.2940719069970035e+00  4.3647127078047330e+00  6.7315027118121247e+00  3.7415580672108746e+00  3.6978182140650775e+00  3.2820432151861199e+00  2.8951857396355685e+00  3.6523864005012516e+00  3.0302065742005699e+00  3.8223239880735087e+00  </DataArray> 
</PointData> 
</Piece>
</UnstructuredGrid>
</VTKFile>