<?xml version="1.0"?>
<VTKFile type="UnstructuredGrid"  version="0.1"  >
<UnstructuredGrid>
<Piece  NumberOfPoints="48" NumberOfCells="130">
<Points>
<DataArray  type="Float64"  NumberOfComponents="3"  format="ascii">1.42372916157647 -0.2539844475361345 0.3498705792586645  2 -0.6767994715531573 0.731979347409748  2 -0.1170541932096758 0.9884711682419384  1.216605136765853 -0.4175542372323685 0.9052406989901591  0 0.3076461882255092 0.946641831668063  0.8390735365359996 -0.2048613424938509 0.9778212737458538  0 -0.3076461882255039 0.9466418316680646  0.531992401683702 -0.236483445080518 0.3228047890808533  0.9194533905374678 0.5861347491156014 -0.8063859621906176  1.004418682883515 0.001109974122828428 -0.002795400028503259  0.5610463295956879 0.3800134324387933 -0.1785720694361426  0.7146070658082344 0.1820815858914776 -0.9820665290800504  1.471640883711892 0.1841820102590246 -0.3525923165166002  2 -0.905397548469539 -0.4172607924959912  1.216605136765853 -0.7321904312984759 -0.6765422650905474  0.5720052097265838 -0.3232321736617423 -0.2746585571345088  0.7631312411594542 -0.9467519706416923 -0.3072831086878679  0.7051819374547734 -0.5967649048591401 -0.7976620188286898  0 0.8065970460793455 -0.5858775426529915  0 0.3076461882255046 -0.9466418316680644  1.284959687016016 -0.9856751621752424 -0.1454425192096276  2 -0.9807852804032301 0.1950903220161294  1.299288476063125 -0.782579645377683 0.6151428300834265  0.9791218065097678 -0.9467519706416913 0.3072831086878711  2 0.9807852804032304 -0.1950903220161282  2 0.6767994715531562 -0.7319793474097489  2 0.03958085226358687 -0.08038469816587773  1.449188621937131 0.3384323398204612 0.2329864469478739  1.020914668286937 0.1950903220161292 0.9807852804032302  2 -0.4864155127577975 -0.8684335803860417  0 0.8065970460793497 0.5858775426529864  0 0.05450259393629062 -0.07111828751697291  0.8146906921942224 0.714943612543393 0.6975575745487927  1.026208638966963 0.9830734825447693 0.1718578157917925  0 -0.9999999999999999 8.719246176613541e-16  2 0.9053975484695387 0.4172607924959919  1.290963035931445 0.8424743306517328 -0.5349818530794679  1.352112614363568 0.4175542372323676 -0.9052406989901597  2 0.1170541932096755 -0.9884711682419384  1.020914668286937 -0.1950903220161295 -0.98078528040323  0.7038816734996611 -0.5861347491156008 0.806385962190618  0 -0.8065970460793452 0.585877542652992  2 0.4864155127577979 0.8684335803860415  1.325041298016838 0.7321904312984757 0.6765422650905477  0 -0.8065970460793465 -0.5858775426529904  0.7475829472756774 0.9306562046108482 -0.3603437383260175  0 1 0  0 -0.3076461882255061 -0.9466418316680639  </DataArray>
</Points>
<Cells>
<DataArray  type="UInt32"  Name="connectivity"  format="ascii">0 1 2 3  4 5 6 7  8 9 10 11  0 12 13 14  14 15 16 17  8 10 18 19  20 21 22 23  12 24 25 26  0 2 27 28  12 13 26 29  9 10 11 15  7 10 30 31  0 3 5 7  9 10 32 33  15 16 23 34  5 7 9 28  0 12 13 26  24 27 33 35  8 10 12 36  12 37 38 39  0 1 21 22  0 1 3 22  12 13 14 29  6 7 40 41  2 26 27 42  9 12 14 39  0 1 21 26  0 12 26 27  27 32 33 43  0 2 3 28  15 16 34 44  26 27 35 42  8 9 10 12  0 3 22 40  0 20 21 22  12 25 37 38  9 11 12 39  11 12 37 39  0 2 26 27  12 25 36 37  10 11 15 19  4 5 7 28  12 25 26 38  8 10 18 45  12 24 25 36  7 9 10 15  0 3 7 40  8 9 11 12  27 35 42 43  12 24 26 27  12 14 29 39  12 24 27 36  7 9 10 32  4 7 30 32  7 23 34 41  8 12 36 37  8 10 11 19  0 1 2 26  30 32 33 46  0 5 7 9  0 9 12 27  12 29 38 39  0 9 12 14  7 15 23 34  4 6 7 31  4 7 30 31  12 26 29 38  0 7 23 40  4 7 28 32  15 16 20 23  5 6 7 40  9 15 20 23  7 9 15 23  11 17 39 47  2 27 28 42  3 5 7 40  0 7 9 23  24 26 27 35  8 11 12 37  0 13 21 26  0 13 20 21  10 18 19 31  7 31 34 41  9 27 28 32  27 28 32 43  7 10 30 32  10 27 33 36  15 31 34 44  15 31 44 47  10 15 19 31  15 17 44 47  15 16 17 44  9 10 27 36  10 18 45 46  7 15 31 34  9 11 15 39  11 15 17 39  15 19 31 47  11 15 19 47  0 20 22 23  0 9 14 20  0 9 20 23  14 15 17 39  7 10 15 31  11 15 17 47  9 14 15 20  9 14 15 39  9 10 27 33  9 10 12 36  0 9 27 28  0 5 9 28  0 3 5 28  14 15 16 20  24 27 33 36  0 13 14 20  0 22 23 40  9 27 32 33  9 12 27 36  10 30 31 46  10 18 31 46  10 32 33 46  10 33 45 46  10 33 36 45  8 10 36 45  27 28 42 43  10 30 32 46  6 7 31 41  7 9 28 32  27 33 35 43  7 23 40 41  </DataArray>
<DataArray  type="UInt32"  Name="offsets"  format="ascii">4 8 12 16 20 24 28 32 36 40 44 48 52 56 60 64 68 72 76 80 84 88 92 96 100 104 108 112 116 120 124 128 132 136 140 144 148 152 156 160 164 168 172 176 180 184 188 192 196 200 204 208 212 216 220 224 228 232 236 240 244 248 252 256 260 264 268 272 276 280 284 288 292 296 300 304 308 312 316 320 324 328 332 336 340 344 348 352 356 360 364 368 372 376 380 384 388 392 396 400 404 408 412 416 420 424 428 432 436 440 444 448 452 456 460 464 468 472 476 480 484 488 492 496 500 504 508 512 516 520 </DataArray>
<DataArray  type="UInt8"  Name="types"  format="ascii">10 10 10 10 10 10 10 10 10 10 10 10 10 10 10 10 10 10 10 10 10 10 10 10 10 10 10 10 10 10 10 10 10 10 10 10 10 10 10 10 10 10 10 10 10 10 10 10 10 10 10 10 10 10 10 10 10 10 10 10 10 10 10 10 10 10 10 10 10 10 10 10 10 10 10 10 10 10 10 10 10 10 10 10 10 10 10 10 10 10 10 10 10 10 10 10 10 10 10 10 10 10 10 10 10 10 10 10 10 10 10 10 10 10 10 10 10 10 10 10 10 10 10 10 10 10 10 10 10 10 </DataArray>
</Cells>
<PointData  Scalars="f_21-3"> 
<DataArray  type="Float64"  Name="f_21-3"  format="ascii">-2.5799157906075953e-01  -2.0809012267574148e-01  -1.7182367194415032e-01  0.0000000000000000e+00  -2.7063155072813200e-01  0.0000000000000000e+00  -3.1273987738441966e-01  -2.7664177158948272e-01  0.0000000000000000e+00  -3.5572841539353833e-01  -2.5799930200312071e-01  0.0000000000000000e+00  -2.4405666259137040e-01  -2.7109749052412951e-01  0.0000000000000000e+00  -2.6799198703980015e-01  0.0000000000000000e+00  0.0000000000000000e+00  -3.4794729942826813e-01  -3.5059062152872811e-01  0.0000000000000000e+00  -2.4789881711520273e-01  0.0000000000000000e+00  0.0000000000000000e+00  -1.6601137953166892e-01  -2.1665132740965642e-01  -2.0339064643514704e-01  -2.4311188876240078e-01  0.0000000000000000e+00  -3.3333203638345876e-01  -2.3742964443975401e-01  -3.5976153136452532e-01  0.0000000000000000e+00  0.0000000000000000e+00  -4.2066574492091219e-01  -1.3202186615061506e-01  0.0000000000000000e+00  0.0000000000000000e+00  -3.0605358021847334e-01  0.0000000000000000e+00  0.0000000000000000e+00  -3.9000470724749819e-01  -1.3270721483654968e-01  0.0000000000000000e+00  -4.5836087291712752e-01  0.0000000000000000e+00  -3.0717254611274836e-01  -4.0072794426446257e-01  </DataArray> 
</PointData> 
</Piece>
</UnstructuredGrid>
</VTKFile>