<?xml version="1.0"?>
<VTKFile type="UnstructuredGrid"  version="0.1"  >
<UnstructuredGrid>
<Piece  NumberOfPoints="18071" NumberOfCells="35544">
<Points>
<DataArray  type="Float64"  NumberOfComponents="3"  format="ascii">0.9486832980505138 0 0  0.9484724340806782 0.02000104469955538 0  0.9478399359086995 0.03999319812908447 0  0.9467860847054931 0.0599675729710886 0  0.9453113489503684 0.07991528981136745 0  0.9434163842227721 0.09982748108627622 0  0.9411020329108563 0.119695295024715 0  0.938369323837003 0.1395098995830973 0  0.9352194718004709 0.1592624863715497 0  0.931653877037369 0.1789442745695953 0  0.9276741245981944 0.1985465148295827 0  0.9232819836432135 0.2180604931661231 0  0.9184794066559997 0.2374775348298079 0  0.9132685285754754 0.2567890081634844 0  0.9076516658468453 0.2759863284393749 0  0.9016313153918442 0.2950609616753339 0  0.8952101534987531 0.3140044284285474 0  0.8883910346326832 0.3328083075649862 0  0.8811769901666499 0.3514642400029395 0  0.873571227034005 0.3699639324289635 0  0.8655771263028276 0.3882991609845931 0  0.8571982416729006 0.4064617749221782 0  0.8484382978959503 0.4244437002282196 0  0.8393011891198424 0.4422369432125932 0  0.829790977157478 0.459833594062067 0  0.8199118896811526 0.477225830356532 0  0.8096683183431869 0.4944059205463824 0  0.7990648168236594 0.5113662273895018 0  0.7881060988061126 0.5280992113463244 0  0.7767970358821309 0.5445974339314641 0  0.7651426553857218 0.5608535610204205 0  0.753148138158463 0.5768603661098937 0  0.7408188162464108 0.5926107335302548 0  0.7281601705297891 0.6080976616087488 0  0.7151778282865192 0.6233142657820195 0  0.7018775606906669 0.6382537816565753 0  0.6882652802469232 0.652909568015835 0  0.6743470381622587 0.6672751097724156 0  0.6601290216559174 0.6813440208643511 0  0.6456175512089487 0.6951100470939552 0  0.6308190777544996 0.7085670689080622 0  0.6157401798101144 0.7217091041184169 0  0.6003875605533189 0.734530310560997 0  0.584768044841788 0.7470249886930909 0  0.5688885761794213 0.7591875841269735 0  0.5527562136296766 0.7710126900990562 0  0.5363781286775311 0.7824950498734097 0  0.5197616020414676 0.7936295590785962 0  0.5029140204369025 0.8044112679767674 0  0.4858428732924924 0.8148353836640227 0  0.4685557494207815 0.8248972722010478 0  0.4510603336446699 0.8345924606730875 0  0.4333644033811983 0.8439166391783361 0  0.4154758251841748 0.8528656627438631 0  0.3974025512471733 0.8614355531682203 0  0.379152615868464 0.8696225007899122 0  0.3607341318794444 0.8774228661809444 0  0.342155287038158 0.8848331817646961 0  0.3234243403895067 0.8918501533573969 0  0.3045496185937731 0.898470661632525 0  0.2855395122250832 0.904691763507473 0  0.2664024720414594 0.9105106934518669 0  0.2471470052281184 0.915924864716955 0  0.2277816716156831 0.9209318704855235 0  0.2083150798749952 0.925529484941822 0  0.1887558836902123 0.9297156642610294 0  0.1691127779118977 0.9334885475178156 0  0.1493944946918097 0.9368464575135985 0  0.1296097996011066 0.9397879015221259 0  0.1097674877336993 0.9423115719530522 0  0.08987637979647611 0.9444163469332154 0  0.06994531818814397 0.9461012908053551 0  0.04998316306842656 0.9473656545440494 0  0.02999878841936526 0.9482088760886865 0  0.01000107810047723 0.9486305805933245 0  -0.01000107810047732 0.9486305805933245 0  -0.02999878841936514 0.9482088760886865 0  -0.04998316306842644 0.9473656545440494 0  -0.06994531818814406 0.9461012908053551 0  -0.08987637979647599 0.9444163469332155 0  -0.1097674877336992 0.9423115719530522 0  -0.1296097996011065 0.9397879015221259 0  -0.1493944946918096 0.9368464575135985 0  -0.1691127779118979 0.9334885475178156 0  -0.1887558836902122 0.9297156642610294 0  -0.2083150798749951 0.925529484941822 0  -0.227781671615683 0.9209318704855235 0  -0.247147005228118 0.9159248647169551 0  -0.2664024720414591 0.9105106934518669 0  -0.2855395122250831 0.904691763507473 0  -0.3045496185937729 0.8984706616325251 0  -0.3234243403895066 0.8918501533573969 0  -0.3421552870381577 0.8848331817646962 0  -0.3607341318794441 0.8774228661809446 0  -0.3791526158684641 0.8696225007899122 0  -0.3974025512471734 0.8614355531682203 0  -0.4154758251841746 0.8528656627438632 0  -0.4333644033811984 0.8439166391783361 0  -0.4510603336446696 0.8345924606730876 0  -0.4685557494207815 0.8248972722010479 0  -0.4858428732924923 0.8148353836640227 0  -0.5029140204369026 0.8044112679767673 0  -0.5197616020414676 0.7936295590785962 0  -0.536378128677531 0.7824950498734098 0  -0.5527562136296768 0.7710126900990562 0  -0.5688885761794211 0.7591875841269737 0  -0.5847680448417879 0.747024988693091 0  -0.6003875605533187 0.7345303105609973 0  -0.6157401798101142 0.721709104118417 0  -0.6308190777544995 0.7085670689080623 0  -0.6456175512089487 0.6951100470939551 0  -0.6601290216559171 0.6813440208643513 0  -0.6743470381622587 0.6672751097724156 0  -0.688265280246923 0.6529095680158352 0  -0.7018775606906668 0.6382537816565753 0  -0.7151778282865192 0.6233142657820195 0  -0.7281601705297891 0.6080976616087488 0  -0.7408188162464107 0.592610733530255 0  -0.753148138158463 0.5768603661098938 0  -0.7651426553857216 0.5608535610204208 0  -0.7767970358821308 0.5445974339314642 0  -0.7881060988061125 0.5280992113463245 0  -0.7990648168236594 0.5113662273895018 0  -0.8096683183431868 0.4944059205463825 0  -0.8199118896811526 0.477225830356532 0  -0.8297909771574777 0.4598335940620675 0  -0.8393011891198424 0.4422369432125932 0  -0.8484382978959502 0.4244437002282198 0  -0.8571982416729006 0.4064617749221782 0  -0.8655771263028273 0.3882991609845933 0  -0.873571227034005 0.3699639324289636 0  -0.8811769901666499 0.3514642400029395 0  -0.8883910346326833 0.332808307564986 0  -0.8952101534987531 0.3140044284285475 0  -0.9016313153918442 0.295060961675334 0  -0.9076516658468452 0.2759863284393752 0  -0.9132685285754755 0.2567890081634842 0  -0.9184794066559997 0.237477534829808 0  -0.9232819836432135 0.218060493166123 0  -0.9276741245981943 0.1985465148295829 0  -0.931653877037369 0.1789442745695954 0  -0.9352194718004709 0.15926248637155 0  -0.938369323837003 0.1395098995830971 0  -0.9411020329108563 0.1196952950247151 0  -0.9434163842227721 0.09982748108627618 0  -0.9453113489503684 0.07991528981136768 0  -0.9467860847054931 0.05996757297108869 0  -0.9478399359086995 0.03999319812908442 0  -0.9484724340806782 0.02000104469955522 0  -0.9486832980505138 1.161801964362116e-16 0  -0.9484724340806782 -0.02000104469955541 0  -0.9478399359086995 -0.0399931981290842 0  -0.9467860847054931 -0.05996757297108847 0  -0.9453113489503684 -0.07991528981136745 0  -0.9434163842227721 -0.09982748108627594 0  -0.9411020329108563 -0.1196952950247148 0  -0.938369323837003 -0.1395098995830973 0  -0.935219471800471 -0.1592624863715494 0  -0.9316538770373691 -0.1789442745695952 0  -0.9276741245981944 -0.1985465148295827 0  -0.9232819836432136 -0.2180604931661228 0  -0.9184794066559998 -0.2374775348298077 0  -0.9132685285754755 -0.256789008163484 0  -0.9076516658468454 -0.2759863284393745 0  -0.9016313153918442 -0.2950609616753337 0  -0.8952101534987533 -0.3140044284285469 0  -0.8883910346326832 -0.3328083075649862 0  -0.8811769901666497 -0.3514642400029397 0  -0.8735712270340051 -0.3699639324289634 0  -0.8655771263028275 -0.3882991609845931 0  -0.8571982416729007 -0.406461774922178 0  -0.8484382978959503 -0.4244437002282196 0  -0.8393011891198425 -0.4422369432125929 0  -0.8297909771574781 -0.4598335940620669 0  -0.8199118896811529 -0.4772258303565314 0  -0.8096683183431871 -0.494405920546382 0  -0.7990648168236597 -0.5113662273895012 0  -0.7881060988061124 -0.5280992113463246 0  -0.7767970358821309 -0.544597433931464 0  -0.7651426553857217 -0.5608535610204206 0  -0.7531481381584632 -0.5768603661098936 0  -0.7408188162464108 -0.5926107335302547 0  -0.7281601705297893 -0.6080976616087486 0  -0.7151778282865193 -0.6233142657820193 0  -0.7018775606906672 -0.638253781656575 0  -0.6882652802469235 -0.6529095680158347 0  -0.674347038162259 -0.6672751097724151 0  -0.660129021655917 -0.6813440208643514 0  -0.6456175512089486 -0.6951100470939552 0  -0.6308190777544994 -0.7085670689080624 0  -0.6157401798101141 -0.7217091041184172 0  -0.6003875605533191 -0.7345303105609969 0  -0.5847680448417881 -0.7470249886930909 0  -0.5688885761794213 -0.7591875841269736 0  -0.5527562136296765 -0.7710126900990563 0  -0.5363781286775317 -0.7824950498734093 0  -0.519761602041468 -0.7936295590785959 0  -0.5029140204369028 -0.8044112679767672 0  -0.4858428732924925 -0.8148353836640226 0  -0.4685557494207817 -0.8248972722010478 0  -0.4510603336446699 -0.8345924606730875 0  -0.4333644033811982 -0.8439166391783361 0  -0.4154758251841745 -0.8528656627438633 0  -0.3974025512471736 -0.8614355531682203 0  -0.3791526158684643 -0.8696225007899121 0  -0.3607341318794445 -0.8774228661809444 0  -0.342155287038158 -0.8848331817646962 0  -0.3234243403895075 -0.8918501533573966 0  -0.3045496185937727 -0.8984706616325251 0  -0.2855395122250827 -0.9046917635074732 0  -0.2664024720414597 -0.9105106934518667 0  -0.2471470052281185 -0.915924864716955 0  -0.2277816716156832 -0.9209318704855235 0  -0.2083150798749951 -0.925529484941822 0  -0.1887558836902128 -0.9297156642610293 0  -0.1691127779118983 -0.9334885475178155 0  -0.14939449469181 -0.9368464575135985 0  -0.1296097996011069 -0.9397879015221258 0  -0.1097674877336994 -0.942311571953052 0  -0.08987637979647602 -0.9444163469332154 0  -0.06994531818814387 -0.9461012908053551 0  -0.04998316306842625 -0.9473656545440494 0  -0.02999878841936558 -0.9482088760886865 0  -0.01000107810047755 -0.9486305805933245 0  0.0100010781004772 -0.9486305805933245 0  0.02999878841936524 -0.9482088760886865 0  0.04998316306842591 -0.9473656545440494 0  0.06994531818814352 -0.9461012908053552 0  0.08987637979647567 -0.9444163469332155 0  0.1097674877336991 -0.9423115719530522 0  0.1296097996011066 -0.9397879015221259 0  0.1493944946918097 -0.9368464575135985 0  0.1691127779118979 -0.9334885475178156 0  0.1887558836902125 -0.929715
[...]
<PointData  Scalars="f_29-2"> 
<DataArray  type="Float64"  Name="f_29-2"  format="ascii">0.0000000000000000e+00  0.0000000000000000e+00  0.0000000000000000e+00  0.0000000000000000e+00  0.0000000000000000e+00  0.0000000000000000e+00  0.0000000000000000e+00  0.0000000000000000e+00  0.0000000000000000e+00  0.0000000000000000e+00  0.0000000000000000e+00  0.0000000000000000e+00  0.0000000000000000e+00  0.0000000000000000e+00  0.0000000000000000e+00  0.0000000000000000e+00  0.0000000000000000e+00  0.0000000000000000e+00  0.0000000000000000e+00  0.0000000000000000e+00  0.0000000000000000e+00  0.0000000000000000e+00  0.0000000000000000e+00  0.0000000000000000e+00  0.0000000000000000e+00  0.0000000000000000e+00  0.0000000000000000e+00  0.0000000000000000e+00  0.0000000000000000e+00  0.0000000000000000e+00  0.0000000000000000e+00  0.0000000000000000e+00  0.0000000000000000e+00  0.0000000000000000e+00  0.0000000000000000e+00  0.0000000000000000e+00  0.0000000000000000e+00  0.0000000000000000e+00  0.0000000000000000e+00  0.0000000000000000e+00  0.0000000000000000e+00  0.0000000000000000e+00  0.0000000000000000e+00  0.0000000000000000e+00  0.0000000000000000e+00  0.0000000000000000e+00  0.0000000000000000e+00  0.0000000000000000e+00  0.0000000000000000e+00  0.0000000000000000e+00  0.0000000000000000e+00  0.0000000000000000e+00  0.0000000000000000e+00  0.0000000000000000e+00  0.0000000000000000e+00  0.0000000000000000e+00  0.0000000000000000e+00  0.0000000000000000e+00  0.0000000000000000e+00  0.0000000000000000e+00  0.0000000000000000e+00  0.0000000000000000e+00  0.0000000000000000e+00  0.0000000000000000e+00  0.0000000000000000e+00  0.0000000000000000e+00  0.0000000000000000e+00  0.0000000000000000e+00  0.0000000000000000e+00  0.0000000000000000e+00  0.0000000000000000e+00  0.0000000000000000e+00  0.0000000000000000e+00  0.0000000000000000e+00  0.0000000000000000e+00  0.0000000000000000e+00  0.0000000000000000e+00  0.0000000000000000e+00  0.0000000000000000e+00  0.0000000000000000e+00  0.0000000000000000e+00  0.0000000000000000e+00  0.0000000000000000e+00  0.0000000000000000e+00  0.0000000000000000e+00  0.0000000000000000e+00  0.0000000000000000e+00  0.0000000000000000e+00  0.0000000000000000e+00  0.0000000000000000e+00  0.0000000000000000e+00  0.0000000000000000e+00  0.0000000000000000e+00  0.0000000000000000e+00  0.0000000000000000e+00  0.0000000000000000e+00  0.0000000000000000e+00  0.0000000000000000e+00  0.0000000000000000e+00  0.0000000000000000e+00  0.0000000000000000e+00  0.0000000000000000e+00  0.0000000000000000e+00  0.0000000000000000e+00  0.0000000000000000e+00  0.0000000000000000e+00  0.0000000000000000e+00  0.0000000000000000e+00  0.0000000000000000e+00  0.0000000000000000e+00  0.0000000000000000e+00  0.0000000000000000e+00  0.0000000000000000e+00  0.0000000000000000e+00  0.0000000000000000e+00  0.0000000000000000e+00  0.0000000000000000e+00  0.0000000000000000e+00  0.0000000000000000e+00  0.0000000000000000e+00  0.0000000000000000e+00  0.0000000000000000e+00  0.0000000000000000e+00  0.0000000000000000e+00  0.0000000000000000e+00  0.0000000000000000e+00  0.0000000000000000e+00  0.0000000000000000e+00  0.0000000000000000e+00  0.0000000000000000e+00  0.0000000000000000e+00  0.0000000000000000e+00  0.0000000000000000e+00  0.0000000000000000e+00  0.0000000000000000e+00  0.0000000000000000e+00  0.0000000000000000e+00  0.0000000000000000e+00  0.0000000000000000e+00  0.0000000000000000e+00  0.0000000000000000e+00  0.0000000000000000e+00  0.0000000000000000e+00  0.0000000000000000e+00  0.0000000000000000e+00  0.0000000000000000e+00  0.0000000000000000e+00  0.0000000000000000e+00  0.0000000000000000e+00  0.0000000000000000e+00  0.0000000000000000e+00  0.0000000000000000e+00  0.0000000000000000e+00  0.0000000000000000e+00  0.0000000000000000e+00  0.0000000000000000e+00  0.0000000000000000e+00  0.0000000000000000e+00  0.0000000000000000e+00  0.0000000000000000e+00  0.0000000000000000e+00  0.0000000000000000e+00  0.0000000000000000e+00  0.0000000000000000e+00  0.0000000000000000e+00  0.0000000000000000e+00  0.0000000000000000e+00  0.0000000000000000e+00  0.0000000000000000e+00  0.0000000000000000e+00  0.0000000000000000e+00  0.0000000000000000e+00  0.0000000000000000e+00  0.0000000000000000e+00  0.0000000000000000e+00  0.0000000000000000e+00  0.0000000000000000e+00  0.0000000000000000e+00  0.0000000000000000e+00  0.0000000000000000e+00  0.0000000000000000e+00  0.0000000000000000e+00  0.0000000000000000e+00  0.0000000000000000e+00  0.0000000000000000e+00  0.0000000000000000e+00  0.0000000000000000e+00  0.0000000000000000e+00  0.0000000000000000e+00  0.0000000000000000e+00  0.0000000000000000e+00  0.0000000000000000e+00  0.0000000000000000e+00  0.0000000000000000e+00  0.0000000000000000e+00  0.0000000000000000e+00  0.0000000000000000e+00  0.0000000000000000e+00  0.0000000000000000e+00  0.0000000000000000e+00  0.0000000000000000e+00  0.0000000000000000e+00  0.0000000000000000e+00  0.0000000000000000e+00  0.0000000000000000e+00  0.0000000000000000e+00  0.0000000000000000e+00  0.0000000000000000e+00  0.0000000000000000e+00  0.0000000000000000e+00  0.0000000000000000e+00  0.0000000000000000e+00  0.0000000000000000e+00  0.0000000000000000e+00  0.0000000000000000e+00  0.0000000000000000e+00  0.0000000000000000e+00  0.0000000000000000e+00  0.0000000000000000e+00  0.0000000000000000e+00  0.0000000000000000e+00  0.0000000000000000e+00  0.0000000000000000e+00  0.0000000000000000e+00  0.0000000000000000e+00  0.0000000000000000e+00  0.0000000000000000e+00  0.0000000000000000e+00  0.0000000000000000e+00  0.0000000000000000e+00  0.0000000000000000e+00  0.0000000000000000e+00  0.0000000000000000e+00  0.0000000000000000e+00  0.0000000000000000e+00  0.0000000000000000e+00  0.0000000000000000e+00  0.0000000000000000e+00  0.0000000000000000e+00  0.0000000000000000e+00  0.0000000000000000e+00  0.0000000000000000e+00  0.0000000000000000e+00  0.0000000000000000e+00  0.0000000000000000e+00  0.0000000000000000e+00  0.0000000000000000e+00  0.0000000000000000e+00  0.0000000000000000e+00  0.0000000000000000e+00  0.0000000000000000e+00  0.0000000000000000e+00  0.0000000000000000e+00  0.0000000000000000e+00  0.0000000000000000e+00  0.0000000000000000e+00  0.0000000000000000e+00  0.0000000000000000e+00  0.0000000000000000e+00  0.0000000000000000e+00  0.0000000000000000e+00  0.0000000000000000e+00  0.0000000000000000e+00  0.0000000000000000e+00  0.0000000000000000e+00  0.0000000000000000e+00  0.0000000000000000e+00  0.0000000000000000e+00  0.0000000000000000e+00  0.0000000000000000e+00  0.0000000000000000e+00  0.0000000000000000e+00  0.0000000000000000e+00  0.0000000000000000e+00  0.0000000000000000e+00  0.0000000000000000e+00  0.0000000000000000e+00  0.0000000000000000e+00  0.0000000000000000e+00  0.0000000000000000e+00  0.0000000000000000e+00  0.0000000000000000e+00  0.0000000000000000e+00  0.0000000000000000e+00  0.0000000000000000e+00  0.0000000000000000e+00  0.0000000000000000e+00  0.0000000000000000e+00  0.0000000000000000e+00  0.0000000000000000e+00  0.0000000000000000e+00  0.0000000000000000e+00  0.0000000000000000e+00  0.0000000000000000e+00  0.0000000000000000e+00  0.0000000000000000e+00  0.0000000000000000e+00  0.0000000000000000e+00  1.2499878611862105e+00  9.3749901227264654e-01  9.3742851291584384e-01  9.3744779703681014e-01  9.3747534181015890e-01  9.1646718025163887e-01  8.8264632522786124e-01  7.5123307576427412e-01  7.5116022772704671e-01  6.8771676629061163e-01  6.8457938214535496e-01  6.6399768106673451e-01  6.5545698897980842e-01  1.1317085400408078e+00  1.1317021646807801e+00  1.1443225270754929e+00  5.8290809281255729e-01  5.8286974183051299e-01  5.8707374177539773e-01  5.8288198821688375e-01  1.1456219995109296e+00  1.1243310229063534e+00  5.5930624002675910e-01  5.6031099321679168e-01  1.0878672323024967e+00  5.4755077285156373e-01  5.3001682301533160e-01  5.7234131184835901e-01  5.8551652436478008e-01  5.2766802822043890e-01  9.4437261266702721e-01  6.6315250949273952e-01  4.4388409210231289e-01  4.4388880014791932e-01  4.4773135614544479e-01  4.4389301575986773e-01  9.5569097290480864e-01  8.6164120246949316e-01  8.6155753358121767e-01  9.5980942345012543e-01  8.6758229815125598e-01  1.2005425795066929e+00  1.2051922976240617e+00  9.3796309021072144e-01  4.1174808878609054e-01  4.0254919285217927e-01  4.1030008110639271e-01  4.0352061975472087e-01  6.7959187695421763e-01  4.0027502779871549e-01  4.0062240392361298e-01  3.8106164075631394e-01  3.8971251729997769e-01  8.8080799247016361e-01  8.0636873805477360e-01  9.1182512597395970e-01  3.7943943534090790e-01  3.7907260162363110e-01  1.1191957428652628e+00  9.7415089180118464e-01  1.2169646978412698e+00  1.2112590848774454e+00  1.1957192351573140e+00  7.7743997239960161e-01  1.0987450770728107e+00  3.8984760276171965e-01  1.0455764445290847e+00  1.0912737305861537e+00  3.7585928697905396e-01  3.5782419937168458e-01  7.5219496307439071e-01  8.4339890744642876e-01  3.5046682192127870e-01  1.0911437411043399e+00  1.2201669978862211e+00  1.0411994222612742e+00  1.0303205925090086e+00  1.0624553398549350e+00  1.0357307330738004e+00  7.8608329460187487e-01  3.3462676308670752e-01  3.3155916324221346e-01  3.3148693183351685e-01  6.9178226867881409e-01  3.3220874947700485e-01  3.5404166268803156e-01  8.1373279416884714e-01  7.1590862229965813e-01  3.2135423493663406e-01  1.0246576776379959e+00  7.7649538506384241e-01  8.1915232577499242e-01  6.7687054831247084e-01  3.1272192763728468e-01  9.6401253916426455e-01  6.7789777488748992e-01  6.7785939529217254e-01  3.1063329285227292e-01  1.0285091769552357e+00  3.1154241440512020e-01  7.3229514087936365e-01  3.1187983091189631e-01  6.4656742068991524e-01  7.8049819325388459e-01  7.5317022935787159e-01  1.1513080099213375e+00  1.0551856027857471e+00  1.0348620687669294e+00  2.9860649028458741e-01  6.1975462017351191e-01  2.8596853113460990e-01  1.0178375784791083e+00  7.2145634389309077e-01  8.0725823411756359e-01  3.1273000350205721e-01  6.2537232473544913e-01  1.2068752426205029e+00  8.1225715296515510e-01  5.4892613338279461e-01  6.3080213833715182e-01  3.2946417308918424e-01  3.0747969608331110e-01  5.4680508957739205e-01  9.0467776296960034e-01  1.1449332416826439e+00  7.4902787496980938e-01  5.9606204135507823e-01  1.1381482998886399e+00  2.8169029441005994e-01  5.9969190438492292e-01  3.7547427215270346e-01  2.9343702789988901e-01  5.6734494187191187e-01  9.1483299347580482e-01  2.8373105974602436e-01  2.8673714430909797e-01  2.7300607017196432e-01  2.7199157207564445e-01  7.0787207536330388e-01  1.2048288579073263e+00  4.5539075496983739e-01  9.9639553250789958e-01  5.8755225388606691e-01  1.1284868390513343e+00  4.9973168297379650e-01  1.2360225221580434e+00  5.5733703446672300e-01  1.0645384448595610e+00  2.4683378991157257e-01  3.7511837115249930e-01  2.7193292461093810e-01  8.9059680853136147e-01  8.0984280843778456e-01  1.0574110515751183e+00  8.2260245474138294e-01  2.4588063194543286e-01  2.4752691518128445e-01  2.4085230416397943e-01  2.4076532113621604e-01  5.0069377831935657e-01  7.7872591505637634e-01  1.1640445768758503e+00  5.1755981257767114e-01  4.8201789728681932e-01  6.8758985952885032e-01  8.2304884951183888e-01  5.7596802641985967e-01  8.6564030400132386e-01  9.8229472306405607e-01  1.2372554292488342e+00  1.1669871267403793e+00  5.2767561190020928e-01  8.1288595236273509e-01  2.5264647207469654e-01  1.1384961970284684e+00  1.0602818614473020e+00  9.4639496120708333e-01  5.2613674096547924e-01  1.0399738976802348e+00  5.5242618795506315e-01  8.6771030552242590e-01  9.5001927545933829e-01  5.1508267066909585e-01  8.3791035099331657e-01  4.8524546792830597e-01  5.5146458250506836e-01  1.1641490781345922e+00  1.2375062576118936e+00  1.1706757818284492e+00  2.2590067307334016e-01  2.3498075615893149e-01  9.1877226645783794e-01  2.2727981268207406e-01  2.4568095706580059e-01  9.0339395982420834e-01  8.1376781453651714e-01  7.3603942186476179e-01  8.1372919073476591e-01  7.2517796907515386e-01  9.4435152313502391e-01  7.3552808694855099e-01  5.6426933819187319e-01  2.2820846241539477e-01  2.1891169300942939e-01  2.1925380623247243e-01  4.9761761688268547e-01  8.4200150841771393e-01  4.9916342174747114e-01  4.8045182859576552e-01  2.2109724438885631e-01  2.1976293413596146e-01  9.6985644315247499e-01  1.0573289799096335e+00  2.1931917577325374e-01  1.0391812846436277e+00  1.0336364045726982e+00  1.1171183147831847e+00  2.1149412434966133e-01  9.3133587290253383e-01  2.1663142512648820e-01  1.2401960387455673e+00  6.6539329720454155e-01  2.3599187996589674e-01  2.2396650016003827e-01  2.1189184384164583e-01  1.0170339785344631e+00  2.0816360543533965e-01  2.7435151335975289e-01  4.2256282492697178e-01  2.3073771100826423e-01  2.0676323894086565e-01  5.5907471903705230e-01  4.5240284835889488e-01  4.6816706215739567e-01  4.4804609368331721e-01  2.1655126565043611e-01  6.0305983639817429e-01  2.2500795169043733e-01  4.1774462299425702e-01  2.0271112323460444e-01  1.1783940869621869e+00  1.1983366893638536e+00  4.6251854885096966e-01  4.8417219974451514e-01  7.9266146482063626e-01  1.1991177689895269e+00  5.7491328961430677e-01  9.8102526247165556e-01  9.3665691208123891e-01  1.1753108857754422e+00  5.1094863452170536e-01  7.5559294185977255e-01  6.9401072105007755e-01  5.2506301826896118e-01  2.0293129661417514e-01  2.1290268714805652e-01  2.0274244151334420e-01  2.5207942970214287e-01  9.4059443994958536e-01  9.4397501424731534e-01  7.2392797778752005e-01  2.0750122991691802e-01  7.1646107094787692e-01  1.0511545832544529e+00  2.0295617829710635e-01  8.2665644252773252e-01  1.0948119622279904e+00  1.0898211322833187e+00  1.2188868073950008e+00  1.1502569641581697e+00  7.1736384853843482e-01  1.2417533339290530e+00  2.0694474204848898e-01  1.1040227156631537e+00  8.7068965397714160e-01  9.5227939511205439e-01  7.9816261937538524e-01  7.5074217155767731e-01  7.6883884011723469e-01  2.0845256814268198e-01  1.1335572854890656e+00  5.3954013489653574e-01  9.6849664710394490e-01  6.6082173112766096e-01  8.2567457566558200e-01  1.0289150745866129e+00  1.0309656806049339e+00  1.1041250599862729e+00  2.4807636789394036e-01  1.0889619670947119e+00  6.0165528172974958e-01  1.1568827383316496e+00  7.1429818899506303e-01  6.5208308633901990e-01  1.2376198156740723e+00  1.0163044060785713e+00  4.8101790646577597e-01  6.9014292300825564e-01  5.4886958220070592e-01  1.1812620904439453e+00  4.2775050870969872e-01  8.8575999393124971e-01  5.8873614639843341e-01  1.8922832046049168e-01  1.8537321287008654e-01  1.2101824870846682e+00  6.5019343899305582e-01  1.9680781544593007e-01  4.3692762773602772e-01  4.7326347168044475e-01  1.9558964209489588e-01  4.3482006734724271e-01  1.8969019782998628e-01  1.9300175419259202e-01  1.0980370658938783e+00  1.8397310914396600e-01  6.4252285605094872e-01  7.0266911800320253e-01  7.1150041885495963e-01  5.3626191817462843e-01  1.8227221870692528e-01  1.0347398336179277e+00  1.0300082889493136e+00  1.1093465666987330e+00  9.3234286771857688e-01  3.9955015893233026e-01  9.5889766379003305e-01  7.6076743524918133e-01  8.5965351824776326e-01  1.2281341939258794e+00  1.7957650791096180e-01  1.8012184186436989e-01  4.5478110767939461e-01  1.0050518006293847e+00  1.0960988036815194e+00  6.8695580677678447e-01  1.0147021576754527e+00  9.9547347030836453e-01  6.0716120097859561e-01  8.4495145320523735e-01  9.6002188292533419e-01  7.1721725841022732e-01  8.2222169543600176e-01  6.9796116202349467e-01  8.6000971864328035e-01  3.8074434289491377e-01  4.6091099356711840e-01  9.0433313138617799e-01  6.6315782669718149e-01  1.1776942172029641e+00  1.8401677626274357e-01  8.7229454173697640e-01  8.7783772004134575e-01  4.9504728760914013e-01  4.2520927494101968e-01  3.9595688162009240e-01  3.8280835514479944e-01  1.1828436732836716e+00  3.7138797628490600e-01  8.5777032301598422e-01  9.9085839566276035e-01  5.9130563969494332e-01  6.3371800636897258e-01  1.1101252894487126e+00  3.8853314912051856e-01  3.8178205926167375e-01  6.6881917453398221e-01  6.4576468186808755e-01  8.8992906569712638e-01  3.8940025725887584e-01  1.2230929181460504e+00  7.6072641916537564e-01  1.0178853904161764e+00  1.1015219136281758e+00  1.6665172527522154e-01  3.8480232532385517e-01  8.4507433031714052e-01  1.6958554758360728e-01  8.3107136115568203e-01  2.6202005239182252e-01  1.7004998495171231e-01  1.6540451003503140e-01  1.6961566892685520e-01  7.6768350223827597e-01  1.2439813057774436e+00  8.4113623550993288e-01  1.7045154134357376e-01  1.6287627530944371e-01  9.6006342141514245e-01  6.1164417866298793e-01  1.1709444490159175e+00  6.8088344702158177e-01  6.3441485198594905e-01  1.6659686576166124e-01  6.8183924927809747e-01  9.4583599655114947e-01  1.0914348690368167e+00  1.6640501310913416e-01  4.0832292979999141e-01  6.3194616435947726e-01  5.6403605512584154e-01  4.3767777371509187e-01  3.6090861131596896e-01  1.7340749360511229e-01  3.7510524793105565e-01  4.1935204924216568e-01  4.4195166840134453e-01  3.6832939960250555e-01  9.8718008438363025e-01  3.6946413183929383e-01  1.1417775391791223e+00  7.1731096493424151e-01  7.6719218387943267e-01  5.6168568891887405e-01  5.2033574867784682e-01  2.1472268672609782e-01  9.9665704774342223e-01  6.9636899651135675e-01  4.2995065669270355e-01  3.9865495679606971e-01  6.0151738806987942e-01  1.2266720759728336e+00  7.0969363393654350e-01  4.3715337204580562e-01  5.9435930307573925e-01  1.0532442163135571e+00  1.6568255600458698e-01  1.5784384105997898e-01  7.7624753185947182e-01  8.4834727530238363e-01  7.9376335259615627e-01  1.6161024222664588e-01  1.0808760209299517e+00  1.1864985481665797e+00  7.8148726052857698e-01  5.5786191571524824e-01  3.7828552402675403e-01  1.1340605620287036e+00  1.1922157518031324e+00  5.3665992637978577e-01  9.2424962171644609e-01  3.3586922519320628e-01  1.6049278911002429e-01  8.2711308695364072e-01  1.5278719903018304e-01  1.1042578612026437e+00  6.7874153751996813e-01  9.8252526810508722e-01  1.0526683962102532e+00  9.7341554616280690e-01  1.0889451515395745e+00  7.8253766417369786e-01  1.5526721897127876e-01  1.5719547916079707e-01  1.6016205176275256e-01  4.5556260921288438e-01  3.8405502059002544e-01  7.2381539761151326e-01  5.0481318945130738e-01  3.5517298135738473e-01  1.5710571954401653e-01  1.1999095102031605e+00  5.0894261822138276e-01  5.6837524583710597e-01  1.1642165664682835e+00  4.5972362032649150e-01  9.1456206626556646e-01  1.0818610182802153e+00  1.4894989392132688e-01  9.9972770113728970e-01  4.6303159565693108e-01  1.1725221354810513e+00  1.2196405919918270e+00  3.3683703600884468e-01  3.5703437448250713e-01  1.6291118249571004e-01  9.5897538754491907e-01  1.4552271622735397e-01  8.2544537509318427e-01  1.0724444910891937e+00  9.8280234041635595e-01  8.9003609848401299e-01  6.3825957810307998e-01  3.2927351092534179e-01  5.8682800321008477e-01  1.5227185237522126e-01  6.3402540338415692e-01  7.4200313315343747e-01  8.6371326537138693e-01  8.8102170845393857e-01  7.8887217241394225e-01  5.1560397172039674e-01  5.9332620012871773e-01  6.5466963946780865e-01  3.2700282421381738e-01  1.1044184235620842e+00  1.4364776417267131e-01  1.1492700683069343e+00  8.8997845518027574e-01  7.3051990376794484e-01  7.7265964912460094e-01  8.2390841566476047e-01  8.8238411530686289e-01  6.4793570692573232e-01  1.0885846157392050e+00  1.1705144903172415e+00  5.3653220285450332e-01  1.4707759581918245e-01  9.7977615728589207e-01  3.3839758418578958e-01  8.9516689089086965e-01  1.1043142188387132e+00  5.3989037431769871e-01  1.1410064519717351e+00  1.2004401096034110e+00  6.5950636493863446e-01  1.0392851310800826e+00  6.1162004061781794e-01  6.5427887137307827e-01  5.2201597662793220e-01  7.2330130427485029e-01  6.4416487440395898e-01  9.4100129312127201e-01  1.4973599226930795e-01  9.9782943798377277e-01  3.6721790227984397e-01  6.0859323012522870e-01  8.5390099038716805e-01  1.4969740991998351e-01  3.4692085098473185e-01  1.1973973303464205e+00  4.3341895602590