<?xml version="1.0"?>
<VTKFile type="UnstructuredGrid"  version="0.1"  >
<UnstructuredGrid>
<Piece  NumberOfPoints="18071" NumberOfCells="35544">
<Points>
<DataArray  type="Float64"  NumberOfComponents="3"  format="ascii">0.9486832980505138 0 0  0.9484724340806782 0.02000104469955538 0  0.9478399359086995 0.03999319812908447 0  0.9467860847054931 0.0599675729710886 0  0.9453113489503684 0.07991528981136745 0  0.9434163842227721 0.09982748108627622 0  0.9411020329108563 0.119695295024715 0  0.938369323837003 0.1395098995830973 0  0.9352194718004709 0.1592624863715497 0  0.931653877037369 0.1789442745695953 0  0.9276741245981944 0.1985465148295827 0  0.9232819836432135 0.2180604931661231 0  0.9184794066559997 0.2374775348298079 0  0.9132685285754754 0.2567890081634844 0  0.9076516658468453 0.2759863284393749 0  0.9016313153918442 0.2950609616753339 0  0.8952101534987531 0.3140044284285474 0  0.8883910346326832 0.3328083075649862 0  0.8811769901666499 0.3514642400029395 0  0.873571227034005 0.3699639324289635 0  0.8655771263028276 0.3882991609845931 0  0.8571982416729006 0.4064617749221782 0  0.8484382978959503 0.4244437002282196 0  0.8393011891198424 0.4422369432125932 0  0.829790977157478 0.459833594062067 0  0.8199118896811526 0.477225830356532 0  0.8096683183431869 0.4944059205463824 0  0.7990648168236594 0.5113662273895018 0  0.7881060988061126 0.5280992113463244 0  0.7767970358821309 0.5445974339314641 0  0.7651426553857218 0.5608535610204205 0  0.753148138158463 0.5768603661098937 0  0.7408188162464108 0.5926107335302548 0  0.7281601705297891 0.6080976616087488 0  0.7151778282865192 0.6233142657820195 0  0.7018775606906669 0.6382537816565753 0  0.6882652802469232 0.652909568015835 0  0.6743470381622587 0.6672751097724156 0  0.6601290216559174 0.6813440208643511 0  0.6456175512089487 0.6951100470939552 0  0.6308190777544996 0.7085670689080622 0  0.6157401798101144 0.7217091041184169 0  0.6003875605533189 0.734530310560997 0  0.584768044841788 0.7470249886930909 0  0.5688885761794213 0.7591875841269735 0  0.5527562136296766 0.7710126900990562 0  0.5363781286775311 0.7824950498734097 0  0.5197616020414676 0.7936295590785962 0  0.5029140204369025 0.8044112679767674 0  0.4858428732924924 0.8148353836640227 0  0.4685557494207815 0.8248972722010478 0  0.4510603336446699 0.8345924606730875 0  0.4333644033811983 0.8439166391783361 0  0.4154758251841748 0.8528656627438631 0  0.3974025512471733 0.8614355531682203 0  0.379152615868464 0.8696225007899122 0  0.3607341318794444 0.8774228661809444 0  0.342155287038158 0.8848331817646961 0  0.3234243403895067 0.8918501533573969 0  0.3045496185937731 0.898470661632525 0  0.2855395122250832 0.904691763507473 0  0.2664024720414594 0.9105106934518669 0  0.2471470052281184 0.915924864716955 0  0.2277816716156831 0.9209318704855235 0  0.2083150798749952 0.925529484941822 0  0.1887558836902123 0.9297156642610294 0  0.1691127779118977 0.9334885475178156 0  0.1493944946918097 0.9368464575135985 0  0.1296097996011066 0.9397879015221259 0  0.1097674877336993 0.9423115719530522 0  0.08987637979647611 0.9444163469332154 0  0.06994531818814397 0.9461012908053551 0  0.04998316306842656 0.9473656545440494 0  0.02999878841936526 0.9482088760886865 0  0.01000107810047723 0.9486305805933245 0  -0.01000107810047732 0.9486305805933245 0  -0.02999878841936514 0.9482088760886865 0  -0.04998316306842644 0.9473656545440494 0  -0.06994531818814406 0.9461012908053551 0  -0.08987637979647599 0.9444163469332155 0  -0.1097674877336992 0.9423115719530522 0  -0.1296097996011065 0.9397879015221259 0  -0.1493944946918096 0.9368464575135985 0  -0.1691127779118979 0.9334885475178156 0  -0.1887558836902122 0.9297156642610294 0  -0.2083150798749951 0.925529484941822 0  -0.227781671615683 0.9209318704855235 0  -0.247147005228118 0.9159248647169551 0  -0.2664024720414591 0.9105106934518669 0  -0.2855395122250831 0.904691763507473 0  -0.3045496185937729 0.8984706616325251 0  -0.3234243403895066 0.8918501533573969 0  -0.3421552870381577 0.8848331817646962 0  -0.3607341318794441 0.8774228661809446 0  -0.3791526158684641 0.8696225007899122 0  -0.3974025512471734 0.8614355531682203 0  -0.4154758251841746 0.8528656627438632 0  -0.4333644033811984 0.8439166391783361 0  -0.4510603336446696 0.8345924606730876 0  -0.4685557494207815 0.8248972722010479 0  -0.4858428732924923 0.8148353836640227 0  -0.5029140204369026 0.8044112679767673 0  -0.5197616020414676 0.7936295590785962 0  -0.536378128677531 0.7824950498734098 0  -0.5527562136296768 0.7710126900990562 0  -0.5688885761794211 0.7591875841269737 0  -0.5847680448417879 0.747024988693091 0  -0.6003875605533187 0.7345303105609973 0  -0.6157401798101142 0.721709104118417 0  -0.6308190777544995 0.7085670689080623 0  -0.6456175512089487 0.6951100470939551 0  -0.6601290216559171 0.6813440208643513 0  -0.6743470381622587 0.6672751097724156 0  -0.688265280246923 0.6529095680158352 0  -0.7018775606906668 0.6382537816565753 0  -0.7151778282865192 0.6233142657820195 0  -0.7281601705297891 0.6080976616087488 0  -0.7408188162464107 0.592610733530255 0  -0.753148138158463 0.5768603661098938 0  -0.7651426553857216 0.5608535610204208 0  -0.7767970358821308 0.5445974339314642 0  -0.7881060988061125 0.5280992113463245 0  -0.7990648168236594 0.5113662273895018 0  -0.8096683183431868 0.4944059205463825 0  -0.8199118896811526 0.477225830356532 0  -0.8297909771574777 0.4598335940620675 0  -0.8393011891198424 0.4422369432125932 0  -0.8484382978959502 0.4244437002282198 0  -0.8571982416729006 0.4064617749221782 0  -0.8655771263028273 0.3882991609845933 0  -0.873571227034005 0.3699639324289636 0  -0.8811769901666499 0.3514642400029395 0  -0.8883910346326833 0.332808307564986 0  -0.8952101534987531 0.3140044284285475 0  -0.9016313153918442 0.295060961675334 0  -0.9076516658468452 0.2759863284393752 0  -0.9132685285754755 0.2567890081634842 0  -0.9184794066559997 0.237477534829808 0  -0.9232819836432135 0.218060493166123 0  -0.9276741245981943 0.1985465148295829 0  -0.931653877037369 0.1789442745695954 0  -0.9352194718004709 0.15926248637155 0  -0.938369323837003 0.1395098995830971 0  -0.9411020329108563 0.1196952950247151 0  -0.9434163842227721 0.09982748108627618 0  -0.9453113489503684 0.07991528981136768 0  -0.9467860847054931 0.05996757297108869 0  -0.9478399359086995 0.03999319812908442 0  -0.9484724340806782 0.02000104469955522 0  -0.9486832980505138 1.161801964362116e-16 0  -0.9484724340806782 -0.02000104469955541 0  -0.9478399359086995 -0.0399931981290842 0  -0.9467860847054931 -0.05996757297108847 0  -0.9453113489503684 -0.07991528981136745 0  -0.9434163842227721 -0.09982748108627594 0  -0.9411020329108563 -0.1196952950247148 0  -0.938369323837003 -0.1395098995830973 0  -0.935219471800471 -0.1592624863715494 0  -0.9316538770373691 -0.1789442745695952 0  -0.9276741245981944 -0.1985465148295827 0  -0.9232819836432136 -0.2180604931661228 0  -0.9184794066559998 -0.2374775348298077 0  -0.9132685285754755 -0.256789008163484 0  -0.9076516658468454 -0.2759863284393745 0  -0.9016313153918442 -0.2950609616753337 0  -0.8952101534987533 -0.3140044284285469 0  -0.8883910346326832 -0.3328083075649862 0  -0.8811769901666497 -0.3514642400029397 0  -0.8735712270340051 -0.3699639324289634 0  -0.8655771263028275 -0.3882991609845931 0  -0.8571982416729007 -0.406461774922178 0  -0.8484382978959503 -0.4244437002282196 0  -0.8393011891198425 -0.4422369432125929 0  -0.8297909771574781 -0.4598335940620669 0  -0.8199118896811529 -0.4772258303565314 0  -0.8096683183431871 -0.494405920546382 0  -0.7990648168236597 -0.5113662273895012 0  -0.7881060988061124 -0.5280992113463246 0  -0.7767970358821309 -0.544597433931464 0  -0.7651426553857217 -0.5608535610204206 0  -0.7531481381584632 -0.5768603661098936 0  -0.7408188162464108 -0.5926107335302547 0  -0.7281601705297893 -0.6080976616087486 0  -0.7151778282865193 -0.6233142657820193 0  -0.7018775606906672 -0.638253781656575 0  -0.6882652802469235 -0.6529095680158347 0  -0.674347038162259 -0.6672751097724151 0  -0.660129021655917 -0.6813440208643514 0  -0.6456175512089486 -0.6951100470939552 0  -0.6308190777544994 -0.7085670689080624 0  -0.6157401798101141 -0.7217091041184172 0  -0.6003875605533191 -0.7345303105609969 0  -0.5847680448417881 -0.7470249886930909 0  -0.5688885761794213 -0.7591875841269736 0  -0.5527562136296765 -0.7710126900990563 0  -0.5363781286775317 -0.7824950498734093 0  -0.519761602041468 -0.7936295590785959 0  -0.5029140204369028 -0.8044112679767672 0  -0.4858428732924925 -0.8148353836640226 0  -0.4685557494207817 -0.8248972722010478 0  -0.4510603336446699 -0.8345924606730875 0  -0.4333644033811982 -0.8439166391783361 0  -0.4154758251841745 -0.8528656627438633 0  -0.3974025512471736 -0.8614355531682203 0  -0.3791526158684643 -0.8696225007899121 0  -0.3607341318794445 -0.8774228661809444 0  -0.342155287038158 -0.8848331817646962 0  -0.3234243403895075 -0.8918501533573966 0  -0.3045496185937727 -0.8984706616325251 0  -0.2855395122250827 -0.9046917635074732 0  -0.2664024720414597 -0.9105106934518667 0  -0.2471470052281185 -0.915924864716955 0  -0.2277816716156832 -0.9209318704855235 0  -0.2083150798749951 -0.925529484941822 0  -0.1887558836902128 -0.9297156642610293 0  -0.1691127779118983 -0.9334885475178155 0  -0.14939449469181 -0.9368464575135985 0  -0.1296097996011069 -0.9397879015221258 0  -0.1097674877336994 -0.942311571953052 0  -0.08987637979647602 -0.9444163469332154 0  -0.06994531818814387 -0.9461012908053551 0  -0.04998316306842625 -0.9473656545440494 0  -0.02999878841936558 -0.9482088760886865 0  -0.01000107810047755 -0.9486305805933245 0  0.0100010781004772 -0.9486305805933245 0  0.02999878841936524 -0.9482088760886865 0  0.04998316306842591 -0.9473656545440494 0  0.06994531818814352 -0.9461012908053552 0  0.08987637979647567 -0.9444163469332155 0  0.1097674877336991 -0.9423115719530522 0  0.1296097996011066 -0.9397879015221259 0  0.1493944946918097 -0.9368464575135985 0  0.1691127779118979 -0.9334885475178156 0  0.1887558836902125 -0.929715
[...]
<PointData  Scalars="f_29-2"> 
<DataArray  type="Float64"  Name="f_29-2"  format="ascii">0.0000000000000000e+00  0.0000000000000000e+00  0.0000000000000000e+00  0.0000000000000000e+00  0.0000000000000000e+00  0.0000000000000000e+00  0.0000000000000000e+00  0.0000000000000000e+00  0.0000000000000000e+00  0.0000000000000000e+00  0.0000000000000000e+00  0.0000000000000000e+00  0.0000000000000000e+00  0.0000000000000000e+00  0.0000000000000000e+00  0.0000000000000000e+00  0.0000000000000000e+00  0.0000000000000000e+00  0.0000000000000000e+00  0.0000000000000000e+00  0.0000000000000000e+00  0.0000000000000000e+00  0.0000000000000000e+00  0.0000000000000000e+00  0.0000000000000000e+00  0.0000000000000000e+00  0.0000000000000000e+00  0.0000000000000000e+00  0.0000000000000000e+00  0.0000000000000000e+00  0.0000000000000000e+00  0.0000000000000000e+00  0.0000000000000000e+00  0.0000000000000000e+00  0.0000000000000000e+00  0.0000000000000000e+00  0.0000000000000000e+00  0.0000000000000000e+00  0.0000000000000000e+00  0.0000000000000000e+00  0.0000000000000000e+00  0.0000000000000000e+00  0.0000000000000000e+00  0.0000000000000000e+00  0.0000000000000000e+00  0.0000000000000000e+00  0.0000000000000000e+00  0.0000000000000000e+00  0.0000000000000000e+00  0.0000000000000000e+00  0.0000000000000000e+00  0.0000000000000000e+00  0.0000000000000000e+00  0.0000000000000000e+00  0.0000000000000000e+00  0.0000000000000000e+00  0.0000000000000000e+00  0.0000000000000000e+00  0.0000000000000000e+00  0.0000000000000000e+00  0.0000000000000000e+00  0.0000000000000000e+00  0.0000000000000000e+00  0.0000000000000000e+00  0.0000000000000000e+00  0.0000000000000000e+00  0.0000000000000000e+00  0.0000000000000000e+00  0.0000000000000000e+00  0.0000000000000000e+00  0.0000000000000000e+00  0.0000000000000000e+00  0.0000000000000000e+00  0.0000000000000000e+00  0.0000000000000000e+00  0.0000000000000000e+00  0.0000000000000000e+00  0.0000000000000000e+00  0.0000000000000000e+00  0.0000000000000000e+00  0.0000000000000000e+00  0.0000000000000000e+00  0.0000000000000000e+00  0.0000000000000000e+00  0.0000000000000000e+00  0.0000000000000000e+00  0.0000000000000000e+00  0.0000000000000000e+00  0.0000000000000000e+00  0.0000000000000000e+00  0.0000000000000000e+00  0.0000000000000000e+00  0.0000000000000000e+00  0.0000000000000000e+00  0.0000000000000000e+00  0.0000000000000000e+00  0.0000000000000000e+00  0.0000000000000000e+00  0.0000000000000000e+00  0.0000000000000000e+00  0.0000000000000000e+00  0.0000000000000000e+00  0.0000000000000000e+00  0.0000000000000000e+00  0.0000000000000000e+00  0.0000000000000000e+00  0.0000000000000000e+00  0.0000000000000000e+00  0.0000000000000000e+00  0.0000000000000000e+00  0.0000000000000000e+00  0.0000000000000000e+00  0.0000000000000000e+00  0.0000000000000000e+00  0.0000000000000000e+00  0.0000000000000000e+00  0.0000000000000000e+00  0.0000000000000000e+00  0.0000000000000000e+00  0.0000000000000000e+00  0.0000000000000000e+00  0.0000000000000000e+00  0.0000000000000000e+00  0.0000000000000000e+00  0.0000000000000000e+00  0.0000000000000000e+00  0.0000000000000000e+00  0.0000000000000000e+00  0.0000000000000000e+00  0.0000000000000000e+00  0.0000000000000000e+00  0.0000000000000000e+00  0.0000000000000000e+00  0.0000000000000000e+00  0.0000000000000000e+00  0.0000000000000000e+00  0.0000000000000000e+00  0.0000000000000000e+00  0.0000000000000000e+00  0.0000000000000000e+00  0.0000000000000000e+00  0.0000000000000000e+00  0.0000000000000000e+00  0.0000000000000000e+00  0.0000000000000000e+00  0.0000000000000000e+00  0.0000000000000000e+00  0.0000000000000000e+00  0.0000000000000000e+00  0.0000000000000000e+00  0.0000000000000000e+00  0.0000000000000000e+00  0.0000000000000000e+00  0.0000000000000000e+00  0.0000000000000000e+00  0.0000000000000000e+00  0.0000000000000000e+00  0.0000000000000000e+00  0.0000000000000000e+00  0.0000000000000000e+00  0.0000000000000000e+00  0.0000000000000000e+00  0.0000000000000000e+00  0.0000000000000000e+00  0.0000000000000000e+00  0.0000000000000000e+00  0.0000000000000000e+00  0.0000000000000000e+00  0.0000000000000000e+00  0.0000000000000000e+00  0.0000000000000000e+00  0.0000000000000000e+00  0.0000000000000000e+00  0.0000000000000000e+00  0.0000000000000000e+00  0.0000000000000000e+00  0.0000000000000000e+00  0.0000000000000000e+00  0.0000000000000000e+00  0.0000000000000000e+00  0.0000000000000000e+00  0.0000000000000000e+00  0.0000000000000000e+00  0.0000000000000000e+00  0.0000000000000000e+00  0.0000000000000000e+00  0.0000000000000000e+00  0.0000000000000000e+00  0.0000000000000000e+00  0.0000000000000000e+00  0.0000000000000000e+00  0.0000000000000000e+00  0.0000000000000000e+00  0.0000000000000000e+00  0.0000000000000000e+00  0.0000000000000000e+00  0.0000000000000000e+00  0.0000000000000000e+00  0.0000000000000000e+00  0.0000000000000000e+00  0.0000000000000000e+00  0.0000000000000000e+00  0.0000000000000000e+00  0.0000000000000000e+00  0.0000000000000000e+00  0.0000000000000000e+00  0.0000000000000000e+00  0.0000000000000000e+00  0.0000000000000000e+00  0.0000000000000000e+00  0.0000000000000000e+00  0.0000000000000000e+00  0.0000000000000000e+00  0.0000000000000000e+00  0.0000000000000000e+00  0.0000000000000000e+00  0.0000000000000000e+00  0.0000000000000000e+00  0.0000000000000000e+00  0.0000000000000000e+00  0.0000000000000000e+00  0.0000000000000000e+00  0.0000000000000000e+00  0.0000000000000000e+00  0.0000000000000000e+00  0.0000000000000000e+00  0.0000000000000000e+00  0.0000000000000000e+00  0.0000000000000000e+00  0.0000000000000000e+00  0.0000000000000000e+00  0.0000000000000000e+00  0.0000000000000000e+00  0.0000000000000000e+00  0.0000000000000000e+00  0.0000000000000000e+00  0.0000000000000000e+00  0.0000000000000000e+00  0.0000000000000000e+00  0.0000000000000000e+00  0.0000000000000000e+00  0.0000000000000000e+00  0.0000000000000000e+00  0.0000000000000000e+00  0.0000000000000000e+00  0.0000000000000000e+00  0.0000000000000000e+00  0.0000000000000000e+00  0.0000000000000000e+00  0.0000000000000000e+00  0.0000000000000000e+00  0.0000000000000000e+00  0.0000000000000000e+00  0.0000000000000000e+00  0.0000000000000000e+00  0.0000000000000000e+00  0.0000000000000000e+00  0.0000000000000000e+00  0.0000000000000000e+00  0.0000000000000000e+00  0.0000000000000000e+00  0.0000000000000000e+00  0.0000000000000000e+00  0.0000000000000000e+00  0.0000000000000000e+00  0.0000000000000000e+00  0.0000000000000000e+00  0.0000000000000000e+00  0.0000000000000000e+00  0.0000000000000000e+00  0.0000000000000000e+00  0.0000000000000000e+00  0.0000000000000000e+00  0.0000000000000000e+00  0.0000000000000000e+00  0.0000000000000000e+00  0.0000000000000000e+00  0.0000000000000000e+00  0.0000000000000000e+00  0.0000000000000000e+00  0.0000000000000000e+00  0.0000000000000000e+00  0.0000000000000000e+00  0.0000000000000000e+00  0.0000000000000000e+00  0.0000000000000000e+00  0.0000000000000000e+00  0.0000000000000000e+00  0.0000000000000000e+00  0.0000000000000000e+00  0.0000000000000000e+00  0.0000000000000000e+00  0.0000000000000000e+00  0.0000000000000000e+00  0.0000000000000000e+00  0.0000000000000000e+00  0.0000000000000000e+00  0.0000000000000000e+00  1.2499875146362114e+00  9.3749878011654686e-01  9.3742828078400930e-01  9.3744756488744074e-01  9.3747510965949565e-01  9.1646695503793085e-01  8.8264611099930956e-01  7.5123290210548532e-01  7.5116005407790520e-01  6.8771661102174664e-01  6.8457922776356328e-01  6.6399753247574700e-01  6.5545684277990990e-01  1.1317082393073632e+00  1.1317018639491954e+00  1.1443222216061537e+00  5.8290796630280961e-01  5.8286961534075632e-01  5.8707361415490389e-01  5.8288186171399969e-01  1.1456216935524079e+00  1.1243307249279724e+00  5.5930611972330269e-01  5.6031087264146229e-01  1.0878669477558822e+00  5.4755065559595706e-01  5.3001671026954811e-01  5.7234118812336199e-01  5.8551639715276749e-01  5.2766791606963925e-01  9.4437237821544329e-01  6.6315236115653409e-01  4.4388400071857337e-01  4.4388870878030168e-01  4.4773126384748163e-01  4.4389292438326994e-01  9.5569073465943843e-01  8.6164099495938129e-01  8.6155732609296443e-01  9.5980918381841729e-01  8.6758208875987819e-01  1.2005422524955189e+00  1.2051919688003367e+00  9.3796285790125555e-01  4.1174800506687204e-01  4.0254911131046844e-01  4.1029999770706865e-01  4.0352053797088894e-01  6.7959172399152645e-01  4.0027494677334080e-01  4.0062232281764054e-01  3.8106156417845566e-01  3.8971243873841377e-01  8.8080777884649619e-01  8.0636854778595823e-01  9.1182490228160462e-01  3.7943935916053795e-01  3.7907252550160891e-01  1.1191954467942546e+00  9.7415064730986500e-01  1.2169643644024248e+00  1.2112587536794277e+00  1.1957189100232157e+00  7.7743979090985615e-01  1.0987447885509558e+00  3.8984752417303231e-01  1.0455761752007691e+00  1.0912734447963874e+00  3.7585921160415792e-01  3.5782412811218872e-01  7.5219478911958237e-01  8.4339870569260611e-01  3.5046675233413122e-01  1.0911434553637620e+00  1.2201666631875268e+00  1.0411991544812198e+00  1.0303203285749563e+00  1.0624550644997262e+00  1.0357304672392456e+00  7.8608311050824276e-01  3.3462669704445147e-01  3.3155909788075372e-01  3.3148686649438419e-01  6.9178211225718267e-01  3.3220868396303666e-01  3.5404159228247184e-01  8.1373260163417194e-01  7.1590845896352262e-01  3.2135417183543585e-01  1.0246574156931274e+00  7.7649520385554405e-01  8.1915213156875999e-01  6.7687039611475985e-01  3.1272186644155620e-01  9.6401229810671096e-01  6.7789762239747176e-01  6.7785924282923404e-01  3.1063323210816091e-01  1.0285089136638674e+00  3.1154235346641651e-01  7.3229497278240374e-01  3.1187976990040395e-01  6.4656727694340033e-01  7.8049801085593129e-01  7.5317005510790758e-01  1.1513077018119604e+00  1.0551853300368819e+00  1.0348618032361612e+00  2.9860643216492222e-01  6.1975448378583553e-01  2.8596847574733625e-01  1.0178373189223899e+00  7.2145617895625713e-01  8.0725804357827835e-01  3.1272994229813905e-01  6.2537218681764384e-01  1.2068749131392889e+00  8.1225696087889587e-01  5.4892601576281863e-01  6.3080199892769340e-01  3.2946410818673877e-01  3.0747963603575418e-01  5.4680497250399995e-01  9.0467754161745839e-01  1.1449329359831060e+00  7.4902770194904433e-01  5.9606191133602782e-01  1.1381479967429713e+00  2.8169023994361536e-01  5.9969177340854996e-01  3.7547419688209693e-01  2.9343697089945603e-01  5.6734481946209714e-01  9.1483276879795672e-01  2.8373100484987041e-01  2.8673708873672638e-01  2.7300601756653026e-01  2.7199151967408908e-01  7.0787191434838881e-01  1.2048285292247882e+00  4.5539066082762403e-01  9.9639528039959580e-01  5.8755212613929864e-01  1.1284865395218131e+00  4.9973157787786626e-01  1.2360221811831298e+00  5.5733691466411694e-01  1.0645381687541995e+00  2.4683374283673043e-01  3.7511829594533408e-01  2.7193287223559010e-01  8.9059659174452299e-01  8.0984261710781835e-01  1.0574107780245412e+00  8.2260225947053012e-01  2.4588058506434418e-01  2.4752686794984496e-01  2.4085225834800134e-01  2.4076527531628050e-01  5.0069367298012901e-01  7.7872573318468108e-01  1.1640442639338640e+00  5.1755970300267495e-01  4.8201779659771604e-01  6.8758970430209643e-01  8.2304865410952821e-01  5.7596790175065937e-01  8.6564009522881058e-01  9.8229447579989426e-01  1.2372550877838693e+00  1.1669868126724376e+00  5.2767549974536565e-01  8.1288576008215152e-01  2.5264642375745811e-01  1.1384958937525260e+00  1.0602815868765076e+00  9.4639472607692410e-01  5.2613662920991411e-01  1.0399736303410776e+00  5.5242606944266281e-01  8.6771009608386074e-01  9.5001903911874697e-01  5.1508256172721989e-01  8.3791015095238541e-01  4.8524536644259852e-01  5.5146446423130890e-01  1.1641487651492941e+00  1.2375059160469204e+00  1.1706754663491274e+00  2.2590063033763780e-01  2.3498071155803371e-01  9.1877204049148486e-01  2.2727976967536806e-01  2.4568091022689723e-01  9.0339373889258556e-01  8.1376762199243491e-01  7.3603925266483705e-01  8.1372899819007283e-01  7.2517780304981672e-01  9.4435128869562313e-01  7.3552791789705818e-01  5.6426921658325524e-01  2.2820841921015025e-01  2.1891165171103893e-01  2.1925376486505060e-01  4.9761751232985996e-01  8.4200130710655030e-01  4.9916331681362669e-01  4.8045172830016852e-01  2.2109720263237984e-01  2.1976289266291105e-01  9.6985620011698526e-01  1.0573287063914392e+00  2.1931913438414927e-01  1.0391810175906293e+00  1.0336361394753149e+00  1.1171180194812431e+00  2.1149408456099414e-01  9.3133564279758141e-01  2.1663138429452455e-01  1.2401956961099592e+00  6.6539314822776507e-01  2.3599183513011443e-01  2.2396645781207694e-01  2.1189180397834168e-01  1.0170337192605032e+00  2.0816356631267327e-01  2.7435146046295544e-01  4.2256273863699728e-01  2.3073766726983705e-01  2.0676320011009633e-01  5.5907459879508137e-01  4.5240275491756171e-01  4.6816696487685661e-01  4.4804600130780420e-01  2.1655122482617029e-01  6.0305970451138169e-01  2.2500790913648033e-01  4.1774453784423909e-01  2.0271108522787606e-01  1.1783937685237478e+00  1.1983363632121113e+00  4.6251845296410421e-01  4.8417209853054671e-01  7.9266127872283620e-01  1.1991174425328250e+00  5.7491316521509261e-01  9.8102501563450772e-01  9.3665668020742199e-01  1.1753105685180012e+00  5.1094852660004042e-01  7.5559276690300647e-01  6.9401056400048511e-01  5.2506290676634770e-01  2.0293125856677868e-01  2.1290264707622261e-01  2.0274240350749606e-01  2.5207938152406151e-01  9.4059420676163275e-01  9.4397477992352075e-01  7.2392781211931589e-01  2.0750119096505265e-01  7.1646090746398894e-01  1.0511543119428652e+00  2.0295614023365741e-01  8.2665624600404353e-01  1.0948116751456576e+00  1.0898208470262647e+00  1.2188864732018956e+00  1.1502566564490595e+00  7.1736368478656543e-01  1.2417529906722005e+00  2.0694470318161631e-01  1.1040224252031552e+00  8.7068944358039813e-01  9.5227915801696017e-01  7.9816243160705103e-01  7.5074199803948416e-01  7.6883866120731248e-01  2.0845252897397756e-01  1.1335569840646347e+00  5.3954001970224064e-01  9.6849640453429553e-01  6.6082158345383823e-01  8.2567437944858213e-01  1.0289148111471469e+00  1.0309654164532140e+00  1.1041247694884666e+00  2.4807632056372528e-01  1.0889616821475894e+00  6.0165515022019223e-01  1.1568824281115626e+00  7.1429802611945048e-01  6.5208294108413034e-01  1.2376194740649462e+00  1.0163041470617211e+00  4.8101780603253091e-01  6.9014276706260769e-01  5.4886946458485253e-01  1.1812617709007069e+00  4.2775042119213696e-01  8.8575977871648737e-01  5.8873601833401557e-01  1.8922828519059140e-01  1.8537317835310099e-01  1.2101821563090664e+00  6.5019329424902772e-01  1.9680777862470136e-01  4.3692753803437706e-01  4.7326337315534606e-01  1.9558960554521085e-01  4.3481997814618895e-01  1.8969016245202561e-01  1.9300171815415698e-01  1.0980367776349034e+00  1.8397307492592477e-01  6.4252271343184131e-01  7.0266895846377742e-01  7.1150025678798967e-01  5.3626180383069799e-01  1.8227218478780710e-01  1.0347395681301055e+00  1.0300080251277128e+00  1.1093462742689135e+00  9.3234263727594946e-01  3.9955007808237480e-01  9.5889742446421522e-01  7.6076725875946039e-01  8.5965331136153644e-01  1.2281338560804809e+00  1.7957647451949010e-01  1.8012180840152653e-01  4.5478101366311546e-01  1.0050515455235520e+00  1.0960985161324994e+00  6.8695565171946871e-01  1.0147018992193197e+00  9.9547321851580461e-01  6.0716106797791758e-01  8.4495125095949886e-01  9.6002164322360273e-01  7.1721709469033812e-01  8.2222150029100016e-01  6.9796100384554260e-01  8.6000951164647199e-01  3.8074426638818992e-01  4.6091089806288510e-01  9.0433291015070527e-01  6.6315767834281258e-01  1.1776938990337324e+00  1.8401674200018073e-01  8.7229433082988095e-01  8.7783750736625221e-01  4.9504718369596812e-01  4.2520918804826374e-01  3.9595680159170921e-01  3.8280827816289936e-01  1.1828433531325944e+00  3.7138790193780424e-01  8.5777011673205106e-01  9.9085814545752282e-01  5.9130551096192674e-01  6.3371786614785253e-01  1.1101249967379647e+00  3.8853307081790184e-01  3.8178198253968459e-01  6.6881902461328413e-01  6.4576453836416858e-01  8.8992884912862613e-01  3.8940017876203181e-01  1.2230925822939522e+00  7.6072624267279798e-01  1.0178851308506074e+00  1.1015216240895571e+00  1.6665169446538611e-01  3.8480224790514228e-01  8.4507412802990745e-01  1.6958551620389162e-01  8.3107116324353902e-01  2.6202000212214432e-01  1.7004995346086413e-01  1.6540447947356085e-01  1.6961563753446965e-01  7.6768332367135794e-01  1.2439809616311270e+00  8.4113603446345619e-01  1.7045150978841722e-01  1.6287624525013433e-01  9.6006318169425875e-01  6.1164404447446719e-01  1.1709441334358222e+00  6.8088329369602207e-01  6.3441471160731322e-01  1.6659683496110853e-01  6.8183909567977197e-01  9.4583576161086436e-01  1.0914345831890151e+00  1.6640498236700357e-01  4.0832284689564224e-01  6.3194602464315452e-01  5.6403593358386928e-01  4.3767768383119854e-01  3.6090853935831180e-01  1.7340746146625771e-01  3.7510517273064509e-01  4.1935196373618522e-01  4.4195157749468228e-01  3.6832932595334889e-01  9.8717983544767873e-01  3.6946405793376602e-01  1.1417772346692123e+00  7.1731080116853663e-01  7.6719200545306787e-01  5.6168556798000613e-01  5.2033563838963881e-01  2.1472264628485166e-01  9.9665679554026532e-01  6.9636883877645339e-01  4.2995056866103903e-01  3.9865487615453998e-01  6.0151725659865773e-01  1.2266717387065766e+00  7.0969347237434233e-01  4.3715328230612582e-01  5.9435917352494316e-01  1.0532439442531401e+00  1.6568252538744044e-01  1.5784381198189937e-01  7.7624735072036699e-01  8.4834707199176229e-01  7.9376316617635301e-01  1.6161021241796836e-01  1.0808757389300927e+00  1.1864982266044859e+00  7.8148707781579108e-01  5.5786179579894568e-01  3.7828544808772940e-01  1.1340602604146293e+00  1.1922154280294059e+00  5.3665981193112977e-01  9.2424939394829397e-01  3.3586915888096253e-01  1.6049275952042122e-01  8.2711289028183554e-01  1.5278717095230857e-01  1.1042575706527611e+00  6.7874138480591484e-01  9.8252502075922288e-01  1.0526681243582801e+00  9.7341530192354730e-01  1.0889448666056512e+00  7.8253748115038413e-01  1.5526719041829021e-01  1.5719545021609818e-01  1.6016202223860201e-01  4.5556251501366790e-01  3.8405494333985518e-01  7.2381523197418596e-01  5.0481308309381590e-01  3.5517291069247314e-01  1.5710569061057691e-01  1.1999091834397519e+00  5.0894251080915409e-01  5.6837512314688332e-01  1.1642162534604290e+00  4.5972352511774500e-01  9.1456184168097954e-01  1.0818607359175902e+00  1.4894986659892051e-01  9.9972744786597212e-01  4.6303149964156176e-01  1.1725218192961369e+00  1.2196402575007370e+00  3.3683696948131009e-01  3.5703430340493436e-01  1.6291115242891202e-01  9.5897514819306062e-01  1.4552268956172515e-01  8.2544517893964875e-01  1.0724442121341828e+00  9.8280209297109056e-01  8.9003588188038285e-01  6.3825943666355767e-01  3.2927344608042469e-01  5.8682787566077610e-01  1.5227182437729492e-01  6.3402526310346574e-01  7.4200296220595630e-01  8.6371305720182123e-01  8.8102149475897251e-01  7.8887198748037335e-01  5.1560386262993885e-01  5.9332607083519062e-01  6.5466949348510539e-01  3.2700275987516375e-01  1.1044181329524110e+00  1.4364773785419216e-01  1.1492697609688138e+00  8.8997823859597025e-01  7.3051973617022914e-01  7.7265946907642713e-01  8.2390821999552444e-01  8.8238390117457044e-01  6.4793556281189379e-01  1.0885843309303409e+00  1.1705141749002264e+00  5.3653208843780864e-01  1.4707756884649917e-01  9.7977591088029037e-01  3.3839751730876438e-01  8.9516667263320104e-01  1.1043139282702392e+00  5.3989025904061960e-01  1.1410061477508355e+00  1.2004397826313253e+00  6.5950621760078865e-01  1.0392848639823333e+00  6.1161990643267805e-01  6.5427872550394883e-01  5.2201586591940941e-01  7.2330113879905211e-01  6.4416473133036978e-01  9.4100105979472082e-01  1.4973596478846635e-01  9.9782918537553145e-01  3.6721782888275017e-01  6.0859309676510343e-01  8.5390078531801727e-01  1.4969738244855249e-01  3.4692078219185318e-01  1.1973970045610418e+00  4.3341886715945