<?xml version="1.0"?>
<VTKFile type="UnstructuredGrid"  version="0.1"  >
<UnstructuredGrid>
<Piece  NumberOfPoints="3238" NumberOfCells="6293">
<Points>
<DataArray  type="Float64"  NumberOfComponents="3"  format="ascii">0.9486832980505138 0 0  0.9475040099727444 0.047287959202839 0  0.9439690776354089 0.09445835308830697 0  0.9380872894372694 0.1413939086249357 0  0.9298732684305336 0.1879779366263939 0  0.9193474359656434 0.23409462185919 0  0.906535960920579 0.279629310977591 0  0.8914706946409063 0.3244687975699048 0  0.8741890917523123 0.3685016036074568 0  0.8547341170425047 0.4116182565965337 0  0.8331541386439797 0.453711561744252 0  0.809502807783224 0.4946768684617026 0  0.7838389253953122 0.5344123305418039 0  0.7562262959355172 0.5728191593650196 0  0.7267335687513813 0.6098018695034324 0  0.6954340674096222 0.6452685161125631 0  0.6624056074021922 0.6791309235207397 0  0.6277303026847052 0.7113049044477118 0  0.5914943615282048 0.741710469307493 0  0.5537878721918187 0.7702720250750756 0  0.514704578949153 0.7969185632226012 0  0.4743416490252568 0.8215838362577492 0  0.4327994310235916 0.8442065224254403 0  0.3901812054435905 0.8647303781633826 0  0.3465929279090647 0.8831043779324287 0  0.3021429657458285 0.8992828410741055 0  0.2569418285634513 0.9132255453799296 0  0.211101893510957 0.9248978270901541 0  0.1647371258895251 0.9342706670733373 0  0.1179627958167953 0.9413207629724764 0  0.07089519164719264 0.9460305871383375 0  0.02365133086075582 0.9483884302059546 0  -0.02365133086075571 0.9483884302059546 0  -0.07089519164719252 0.9460305871383375 0  -0.1179627958167952 0.9413207629724764 0  -0.164737125889525 0.9342706670733373 0  -0.2111018935109568 0.9248978270901541 0  -0.2569418285634511 0.9132255453799297 0  -0.3021429657458284 0.8992828410741056 0  -0.3465929279090646 0.8831043779324288 0  -0.3901812054435902 0.8647303781633827 0  -0.4327994310235911 0.8442065224254405 0  -0.4743416490252571 0.821583836257749 0  -0.5147045789491529 0.7969185632226014 0  -0.5537878721918184 0.7702720250750758 0  -0.5914943615282047 0.7417104693074931 0  -0.627730302684705 0.711304904447712 0  -0.6624056074021921 0.6791309235207398 0  -0.6954340674096222 0.6452685161125631 0  -0.7267335687513812 0.6098018695034326 0  -0.7562262959355172 0.5728191593650196 0  -0.783838925395312 0.5344123305418041 0  -0.8095028077832239 0.4946768684617027 0  -0.8331541386439798 0.4537115617442519 0  -0.8547341170425046 0.4116182565965338 0  -0.8741890917523124 0.3685016036074567 0  -0.8914706946409062 0.324468797569905 0  -0.9065359609205789 0.2796293109775914 0  -0.9193474359656433 0.2340946218591902 0  -0.9298732684305336 0.1879779366263939 0  -0.9380872894372694 0.141393908624936 0  -0.9439690776354089 0.09445835308830704 0  -0.9475040099727444 0.0472879592028393 0  -0.9486832980505138 1.161801964362116e-16 0  -0.9475040099727444 -0.04728795920283906 0  -0.9439690776354089 -0.0944583530883068 0  -0.9380872894372694 -0.1413939086249357 0  -0.9298732684305338 -0.1879779366263937 0  -0.9193474359656434 -0.23409462185919 0  -0.9065359609205791 -0.2796293109775908 0  -0.8914706946409063 -0.3244687975699048 0  -0.8741890917523123 -0.3685016036074569 0  -0.8547341170425047 -0.4116182565965337 0  -0.8331541386439799 -0.4537115617442517 0  -0.809502807783224 -0.4946768684617024 0  -0.7838389253953122 -0.5344123305418039 0  -0.7562262959355173 -0.5728191593650194 0  -0.7267335687513813 -0.6098018695034324 0  -0.6954340674096223 -0.6452685161125629 0  -0.6624056074021922 -0.6791309235207396 0  -0.6277303026847055 -0.7113049044477116 0  -0.5914943615282049 -0.7417104693074928 0  -0.5537878721918191 -0.7702720250750751 0  -0.5147045789491528 -0.7969185632226014 0  -0.4743416490252565 -0.8215838362577493 0  -0.4327994310235917 -0.8442065224254401 0  -0.3901812054435904 -0.8647303781633826 0  -0.3465929279090654 -0.8831043779324285 0  -0.302142965745829 -0.8992828410741054 0  -0.2569418285634507 -0.9132255453799298 0  -0.2111018935109571 -0.9248978270901541 0  -0.164737125889525 -0.9342706670733373 0  -0.1179627958167959 -0.9413207629724762 0  -0.07089519164719296 -0.9460305871383375 0  -0.02365133086075594 -0.9483884302059546 0  0.02365133086075559 -0.9483884302059546 0  0.07089519164719262 -0.9460305871383375 0  0.1179627958167947 -0.9413207629724765 0  0.1647371258895247 -0.9342706670733374 0  0.2111018935109567 -0.9248978270901541 0  0.2569418285634512 -0.9132255453799296 0  0.3021429657458287 -0.8992828410741055 0  0.3465929279090643 -0.8831043779324289 0  0.3901812054435901 -0.8647303781633827 0  0.4327994310235914 -0.8442065224254404 0  0.474341649025257 -0.8215838362577491 0  0.5147045789491531 -0.7969185632226011 0  0.5537878721918182 -0.7702720250750759 0  0.5914943615282046 -0.7417104693074931 0  0.6277303026847045 -0.7113049044477123 0  0.6624056074021923 -0.6791309235207396 0  0.6954340674096223 -0.6452685161125629 0  0.7267335687513811 -0.6098018695034327 0  0.756226295935517 -0.5728191593650197 0  0.7838389253953117 -0.5344123305418045 0  0.8095028077832241 -0.4946768684617024 0  0.8331541386439795 -0.4537115617442524 0  0.8547341170425046 -0.4116182565965339 0  0.8741890917523123 -0.3685016036074568 0  0.891470694640906 -0.3244687975699055 0  0.9065359609205789 -0.2796293109775915 0  0.9193474359656433 -0.2340946218591903 0  0.9298732684305336 -0.187977936626394 0  0.9380872894372694 -0.1413939086249356 0  0.9439690776354088 -0.09445835308830756 0  0.9475040099727444 -0.04728795920283941 0  -1.110223024625157e-16 0 0  0.09401819085916749 0.4650811898201446 0  -0.1170837026517897 -0.4598166372700095 0  0.3396710376326679 -0.3313057795005979 0  -0.3985831684342213 0.2574323040682528 0  0.4497812206361214 0.1511184532081793 0  -0.4678296522449308 -0.1836096083159234 0  -0.2355895500368295 0.5588844465176851 0  0.6052680571897296 -0.13814848431036 0  0.4316692651305813 0.4652288238608486 0  0.1699440018198525 -0.6040168882337353 0  -0.4163959192923318 -0.4962413327582046 0  -0.642769633956783 0.08054948543602583 0  -0.1115343976851466 0.2645908534915992 0  -0.1931670123238877 -0.1956285404753415 0  -0.2498407161687224 0.05177370136134687 0  5.898059818321144e-17 0.6981687943722161 0  -0.483109708437092 0.4979263437835442 0  0.361822037928239 -0.08258351904766598 0  0.4140141091090378 -0.566746635611325 0  0.6929212426656604 0.09538900823688645 0  -0.0577528169651628 -0.6994812675480986 0  0.2627635891281025 0.6484391215838409 0  0.1382745535810828 0.2140908845129365 0  0.1054207391253911 -0.3746875801437122 0  0.5845251382931255 -0.3858631758496659 0  -0.6990994377782311 -0.1595648846227037 0  0.6286160902717877 0.3271574405247115 0  -0.6370624647935379 0.3175922410853823 0  -0.6124653864901638 -0.3738489675350367 0  -0.2494905375702229 -0.6197712340060334 0  -0.4462945377711946 0.06630684398331937 0  0.154085691826424 -0.1588211969343469 0  0.2628873183017176 0.3654604251354111 0  -0.2806326729121043 -0.3638673359729195 0  0.2026367527909965 0.03002855433820255 0  -0.1883118667610724 0.7395472415971669 0  -0.3689568220919447 0.6775183381377181 0  -0.01993573429158397 -0.1734976089647549 0  -0.06367146275187838 0.5369808941678446 0  -0.3316788968411377 0.416048485101486 0  0.7214844899758113 -0.2726059376698902 0  0.7720971247867674 -0.09675632267405895 0  0.1158073085217154 -0.7683312895489415 0  0.3018176618408421 -0.7159960909166414 0  0.4736984522064285 0.6253687923070728 0  0.5997774220600344 0.495521041348345 0  0.5469845192899859 0.01694506421294018 0  0.4856555657620147 -0.2528582988922201 0  0.2423446599045919 -0.4599048318856052 0  0.01521443790310079 -0.5542414116777824 0  -0.3574093932547061 -0.06723838122191451 0  -0.1666092886506407 0.4146684525890751 0  -0.4115626391796692 -0.6642315991087294 0  0.2992692056075354 0.2085319774104712 0  -0.572142060044865 -0.06268399171098044 0  -0.4371838101656676 -0.3391145623819656 0  -0.7707361814220313 0.1759155038859614 0  -0.5659336192050233 -0.5519960729153512 0  -0.781552063470025 -0.01355730092482357 0  0.4696031588163752 0.3098387714856638 0  -0.0407097757674429 -0.3260896361090374 0  0.1559699745134315 0.7715390038889668 0  -0.5407358600344384 0.1966829475589161 0  -0.1986272613426354 -0.7678844928272964 0  0.5718291349409204 -0.5447036247449454 0  0.03058522588194268 0.3244992985667739 0  -0.253677331372863 0.2056171147481587 0  -0.1073780288228645 0.1105396375341932 0  -0.6367212858270217 0.4731834134190286 0  0.2931219035594987 0.5069630201331456 0  0.7563577705703616 0.2377948341003486 0  0.3420380570748312 0.05826637322450373 0  -0.1206725986386512 -0.07402828271247157 0  -0.3322725603356667 -0.2301646198664473 0  -0.7419042025048581 -0.3015255626410849 0  0.1195701669044717 0.6108932180062702 0  -0.5015416239321893 0.635717225788853 0  0.02737692077249736 0.134017139808744 0  0.3773860468351642 0.7206094891915363 0  0.812860493436187 0.03242610295987979 0  -0.07388611981097105 0.8111052309222055 0  -0.2442959246965964 -0.4892922127605825 0  0.7135655733810858 -0.4024692785058807 0  -0.3642932467066346 0.5484789362268634 0  -0.4524881480946273 0.3735876073978892 0  0.2099213516485349 -0.2848275062564233 0  0.3122478006637144 -0.2035159833569798 0  0.43109624127659 -0.6963837980763679 0  -0.004731464407071888 -0.8190067012611293 0  0.5600613423512718 0.2179439150874347 0  0.4468733578206618 -0.4269132077142946 0  0.4872830744017452 -0.09398863600514806 0  0.6664633094267685 -0.02789868416369569 0  -0.1060590692061801 -0.5842636330575839 0  0.2930869539360575 -0.5926370091989965 0  0.7165056531269813 0.4136747317087512 0  -0.6713889199795591 -0.4826957611142691 0  -0.1650615436669499 -0.3170959485608871 0  -0.7560359509185862 0.3411364121550141 0  -0.8181202307149236 -0.1442566701384753 0  -0.5906147236861463 -0.2403599348016739 0  0.1272020529197239 -0.4923009383391831 0  -0.1391534729758148 0.6301655208396788 0  -0.3568886656162428 0.1455060335331444 0  0.06164593118022811 -0.2623143376591542 0  -0.2389144395603171 -0.06622081533685589 0  -0.3247128298437102 
[...]
<PointData  Scalars="f_28-2"> 
<DataArray  type="Float64"  Name="f_28-2"  format="ascii">0.0000000000000000e+00  0.0000000000000000e+00  0.0000000000000000e+00  0.0000000000000000e+00  0.0000000000000000e+00  0.0000000000000000e+00  0.0000000000000000e+00  0.0000000000000000e+00  0.0000000000000000e+00  0.0000000000000000e+00  0.0000000000000000e+00  0.0000000000000000e+00  0.0000000000000000e+00  0.0000000000000000e+00  0.0000000000000000e+00  0.0000000000000000e+00  0.0000000000000000e+00  0.0000000000000000e+00  0.0000000000000000e+00  0.0000000000000000e+00  0.0000000000000000e+00  0.0000000000000000e+00  0.0000000000000000e+00  0.0000000000000000e+00  0.0000000000000000e+00  0.0000000000000000e+00  0.0000000000000000e+00  0.0000000000000000e+00  0.0000000000000000e+00  0.0000000000000000e+00  0.0000000000000000e+00  0.0000000000000000e+00  0.0000000000000000e+00  0.0000000000000000e+00  0.0000000000000000e+00  0.0000000000000000e+00  0.0000000000000000e+00  0.0000000000000000e+00  0.0000000000000000e+00  0.0000000000000000e+00  0.0000000000000000e+00  0.0000000000000000e+00  0.0000000000000000e+00  0.0000000000000000e+00  0.0000000000000000e+00  0.0000000000000000e+00  0.0000000000000000e+00  0.0000000000000000e+00  0.0000000000000000e+00  0.0000000000000000e+00  0.0000000000000000e+00  0.0000000000000000e+00  0.0000000000000000e+00  0.0000000000000000e+00  0.0000000000000000e+00  0.0000000000000000e+00  0.0000000000000000e+00  0.0000000000000000e+00  0.0000000000000000e+00  0.0000000000000000e+00  0.0000000000000000e+00  0.0000000000000000e+00  0.0000000000000000e+00  0.0000000000000000e+00  0.0000000000000000e+00  0.0000000000000000e+00  0.0000000000000000e+00  0.0000000000000000e+00  0.0000000000000000e+00  0.0000000000000000e+00  0.0000000000000000e+00  0.0000000000000000e+00  0.0000000000000000e+00  0.0000000000000000e+00  0.0000000000000000e+00  0.0000000000000000e+00  0.0000000000000000e+00  0.0000000000000000e+00  0.0000000000000000e+00  0.0000000000000000e+00  0.0000000000000000e+00  0.0000000000000000e+00  0.0000000000000000e+00  0.0000000000000000e+00  0.0000000000000000e+00  0.0000000000000000e+00  0.0000000000000000e+00  0.0000000000000000e+00  0.0000000000000000e+00  0.0000000000000000e+00  0.0000000000000000e+00  0.0000000000000000e+00  0.0000000000000000e+00  0.0000000000000000e+00  0.0000000000000000e+00  0.0000000000000000e+00  0.0000000000000000e+00  0.0000000000000000e+00  0.0000000000000000e+00  0.0000000000000000e+00  0.0000000000000000e+00  0.0000000000000000e+00  0.0000000000000000e+00  0.0000000000000000e+00  0.0000000000000000e+00  0.0000000000000000e+00  0.0000000000000000e+00  0.0000000000000000e+00  0.0000000000000000e+00  0.0000000000000000e+00  0.0000000000000000e+00  0.0000000000000000e+00  0.0000000000000000e+00  0.0000000000000000e+00  0.0000000000000000e+00  0.0000000000000000e+00  0.0000000000000000e+00  0.0000000000000000e+00  0.0000000000000000e+00  0.0000000000000000e+00  0.0000000000000000e+00  0.0000000000000000e+00  0.0000000000000000e+00  0.0000000000000000e+00  0.0000000000000000e+00  0.0000000000000000e+00  1.7347623031209329e+00  1.3667480290442775e+00  1.3676199686611656e+00  1.3634016008765750e+00  1.3648727312414990e+00  1.3670512071214931e+00  1.3128271834279557e+00  1.0452496815060224e+00  1.0070905139215482e+00  9.6649104525508334e-01  9.8814793144690138e-01  9.2571928265011372e-01  9.2872348396535997e-01  1.6067518362241768e+00  1.6167982732953607e+00  1.6330985089386718e+00  7.8403439010843412e-01  7.9532408097574969e-01  1.5173623361208148e+00  7.7142107671880233e-01  7.7836270061986668e-01  7.7482771103308590e-01  7.7971205310053793e-01  1.6327301179376399e+00  1.4964715442212995e+00  7.7759116711211440e-01  7.2736422713683324e-01  7.4883818557494652e-01  7.4161292014679447e-01  7.2659242379118028e-01  8.7159674960449696e-01  1.4089143112034270e+00  1.6609038851187354e+00  1.4076447097463698e+00  1.3953168067191311e+00  1.6664793169211356e+00  5.8696948730869847e-01  5.6281084663762437e-01  1.6869835087756253e+00  1.2214835141752507e+00  1.2441933412742368e+00  5.6449520054260849e-01  5.4210604040800203e-01  5.4666273485602190e-01  5.4647538812238217e-01  5.2329475046703655e-01  5.4354855551345871e-01  1.2083387316767933e+00  1.2046146724215525e+00  1.2742780511937943e+00  1.1889466970253988e+00  1.5233513919667512e+00  1.4136280859991004e+00  5.3518580636040014e-01  1.5234655038419369e+00  1.1328660953422565e+00  1.1875123610659957e+00  5.0390530712530845e-01  5.0561084317069926e-01  5.3358375698423477e-01  1.1638698823090401e+00  1.5644017156474128e+00  5.1721025185064540e-01  1.1293494822155443e+00  4.9876859161885401e-01  5.0845096626051545e-01  1.5662120012441267e+00  1.5681779818450685e+00  1.6983219732136894e+00  4.9700306322806481e-01  1.1043141009502500e+00  4.9805990352472335e-01  1.5442234872253500e+00  1.7050842564973530e+00  1.4792632801419963e+00  4.7252511427440891e-01  1.0027112972005132e+00  4.4660374403908870e-01  1.7069486333870041e+00  4.3519164347510936e-01  4.3596028507443524e-01  4.3241423083774316e-01  1.2058663681055339e+00  4.1839586583000088e-01  8.9908274241995267e-01  1.0999312279004945e+00  1.5358350141164911e+00  1.5149832594396144e+00  4.1735966979652211e-01  4.1806686461956266e-01  1.0589743254861583e+00  1.0141238829546844e+00  1.3241967859550641e+00  8.7319541247323229e-01  1.0795974565034547e+00  8.9068868474982432e-01  3.9332284548938451e-01  3.9377918883864110e-01  1.5339322041219752e+00  3.8559747428740099e-01  3.7988250125604728e-01  9.5855338034486326e-01  1.2994234220111243e+00  9.3414657698184722e-01  1.4993270453485077e+00  1.6195643639832122e+00  1.6389560270546348e+00  4.0572117157208532e-01  8.9726562262575782e-01  8.7041818130372617e-01  1.5243759924962945e+00  1.4303188832270686e+00  4.4925070877269330e-01  1.4391451277276446e+00  8.7609809583796616e-01  8.1125395680183232e-01  3.8509541880758985e-01  8.7298261909877295e-01  1.5102749474323494e+00  1.6339284966709697e+00  1.7135437921274079e+00  8.2990289287378549e-01  8.2841578759202050e-01  1.3824784735575830e+00  1.3770954587429902e+00  3.8050264256184124e-01  3.6232898087806875e-01  3.6380261221689730e-01  1.4126715212101575e+00  1.4316833321280857e+00  8.2005052230738429e-01  8.4756101088856861e-01  1.1879490709889644e+00  3.5750567838199143e-01  8.0067746012522334e-01  1.7179195611944238e+00  1.6306702963020410e+00  1.1816656619652004e+00  1.6297855665747365e+00  3.3607575815824331e-01  3.6468256577402836e-01  1.1789422700002636e+00  3.5333836436799759e-01  3.4856159247253554e-01  1.0253782767317281e+00  1.1969149838292836e+00  7.8573754304024590e-01  1.5415888743777459e+00  1.1962108852624092e+00  3.5590068609505604e-01  1.3885385499867386e+00  1.2133891975069409e+00  3.6183334362627895e-01  3.2093935891206254e-01  1.5329254022339447e+00  4.4751394495740637e-01  6.8347042528268132e-01  7.0867986699404217e-01  1.4151877015275813e+00  1.5196365086853900e+00  7.3944640302875586e-01  1.3574674383501457e+00  1.6536212131846124e+00  6.5505762322897920e-01  6.3546986988103327e-01  1.1952612109968093e+00  1.4101332461424567e+00  1.6991963584770862e+00  1.5643900971286897e+00  1.5204499724958360e+00  2.9858224383723148e-01  3.0208648555095563e-01  1.6975095659698904e+00  2.9679498191360404e-01  2.9563078103429585e-01  7.0712756324138726e-01  1.0115929660416010e+00  3.0485963018591339e-01  6.7450616382579331e-01  5.1187532996408325e-01  3.0281775169201147e-01  1.3605058560336134e+00  9.9526236245747646e-01  1.2019005894050376e+00  1.4158696296504232e+00  3.2106233309976662e-01  3.0070712923743892e-01  1.4612704963993484e+00  3.1393574756203951e-01  1.7228589819392868e+00  2.9730061043744016e-01  3.0217206055170825e-01  1.6460393218384390e+00  2.8507240599818418e-01  1.3927033640209374e+00  6.5789321789593880e-01  9.8660231427130041e-01  1.2407441849364116e+00  6.6810922329138689e-01  7.5590135995787933e-01  7.7749123036509904e-01  1.0798752738536548e+00  1.2564370735828232e+00  1.0389570073631180e+00  7.6414085368929152e-01  2.7989944987716492e-01  2.6929365609937683e-01  2.7083790451975015e-01  2.7006791032971683e-01  6.5989202371382416e-01  1.6091411083971401e+00  5.5865731601702151e-01  6.2529796466225163e-01  2.8619524752919473e-01  2.8742442657182921e-01  1.6829731559496579e+00  1.1929640250816260e+00  1.6813013994950072e+00  6.6718243127854804e-01  1.0990882419432320e+00  1.6799199308076413e+00  2.8018353824161696e-01  1.1932224022910844e+00  9.9720537535793907e-01  1.0889371266719701e+00  9.8493418823107903e-01  5.9976784100579617e-01  1.0002112035831592e+00  6.1825063115065171e-01  6.3801776095342999e-01  1.6016089555780824e+00  2.5722567180925915e-01  7.1910981992852774e-01  2.6497397848763377e-01  2.7391105744572841e-01  7.0096301431128349e-01  1.0742343946036561e+00  1.3032178177813343e+00  9.8065752466208633e-01  2.6825760436093571e-01  1.4003299491230494e+00  1.1597731619513012e+00  1.4729549512247786e+00  1.1091625728277352e+00  7.4104421866199366e-01  9.3866477904686596e-01  1.6493561999219015e+00  9.5412054673612290e-01  1.2738513779262084e+00  2.6882159273924533e-01  6.0134847762809318e-01  1.5861371574805916e+00  1.3510232512508102e+00  1.2222118384523228e+00  1.3873598059998846e+00  6.3357680898767443e-01  6.1661106504032659e-01  2.6357373407097456e-01  2.6860110522715236e-01  2.6052644258165553e-01  1.3913167224485588e+00  6.1591987201909970e-01  1.0137789756370765e+00  1.3535830170399104e+00  2.4768059943122980e-01  1.5694366774502202e+00  5.9763339827901696e-01  5.7156239188942526e-01  6.0120821996987994e-01  8.2051795548949713e-01  1.7277477418805953e+00  1.2313254085997696e+00  1.6275106463375220e+00  1.4786393025251274e+00  1.4775093186405688e+00  1.6341621126858334e+00  1.5527597796734609e+00  1.4843790137210013e+00  2.4318980671700524e-01  9.7528245509655553e-01  8.6946179038500282e-01  9.7131381872051292e-01  1.6832561314106054e+00  3.4798968001485037e-01  9.3476027831569719e-01  2.5592842087942147e-01  7.2767320423253046e-01  1.5671057951031646e+00  8.9022337652854866e-01  1.6041038222410129e+00  3.2209030783593684e-01  1.7284509474203529e+00  1.5605527922801983e+00  1.2921737916490010e+00  8.3651402342695624e-01  5.5158954315883613e-01  1.5901770820284773e+00  1.2020402991205910e+00  7.6110550978931779e-01  2.5141440060379250e-01  3.2110564472321929e-01  5.9014759980006470e-01  8.2894434479170231e-01  1.5862647947231623e+00  7.3469200367121779e-01  7.7487677663366450e-01  2.2726855827949771e-01  1.2938121169204402e+00  1.0302562689448147e+00  2.5718654256448481e-01  1.2082435409985215e+00  1.4878631472466464e+00  2.3834742366460732e-01  2.4581222103355524e-01  1.3032026197438724e+00  9.4783197319785750e-01  1.0281514730942529e+00  1.3915727391471500e+00  5.7413737214069982e-01  1.1389430314378877e+00  2.4091102623933336e-01  2.2395424362453828e-01  5.3416033638785509e-01  1.1095006131544030e+00  1.6090881520449700e+00  1.4662895873907806e+00  1.5223021469910394e+00  1.0910135993522028e+00  1.6658973088594982e+00  5.8042618597483553e-01  2.4392109589254382e-01  1.7278239224812584e+00  2.2156784060042881e-01  1.5537843734124053e+00  9.9507138215128343e-01  1.4157124324474892e+00  5.2030083466698263e-01  1.2657840222865262e+00  5.5623294054149663e-01  7.6895546627749778e-01  4.9475347287162957e-01  2.4854801493242668e-01  1.5079778360056602e+00  5.1628141862159660e-01  1.4876836516369976e+00  4.2137377005094839e-01  1.4675220094122849e+00  2.2329075935180179e-01  1.2143290439928613e+00  1.5832143605899520e+00  1.6765961935734164e+00  1.0157633569866933e+00  2.3797869079046025e-01  6.4268422908390244e-01  1.6257163693824033e+00  6.1676263363001627e-01  1.0381963574225510e+00  1.4109227441301855e+00  1.4574495689691485e+00  1.4656671643782844e+00  2.2636766355246926e-01  2.1318633769308576e-01  3.4821322942752742e-01  3.2999757106973859e-01  1.3517511005630638e+00  9.3088252674557193e-01  4.9511434926381803e-01  1.0123583311610733e+00  2.2916827123353420e-01  1.2694811924130740e+00  4.6021795911314844e-01  1.1547760394313846e+00  2.1878570308383072e-01  5.9814609507807359e-01  5.6763690575646597e-01  1.6182852449150378e+00  1.7298083655384675e+00  7.2649087904208076e-01  1.2211726403585792e+00  9.2171391149831405e-01  2.0731987859156151e-01  2.0794373637447461e-01  7.8456914795492161e-01  8.8377221553349572e-01  1.2416046704458601e+00  7.7847025767797640e-01  1.4581514350534279e+00  2.1658189228866007e-01  1.9462987395105089e-01  4.8126704478558141e-01  1.4985215464420611e+00  3.3993854589005218e-01  7.2961805227805265e-01  7.7299655574073145e-01  1.4397328237990870e+00  1.2555665339924160e+00  1.1760282842319076e+00  7.1057839479569240e-01  9.0584804921701501e-01  1.1529925333836495e+00  1.2303067233581932e+00  1.5934522581705612e+00  1.4808462955856547e+00  1.5730990137132181e+00  4.8340848043469936e-01  8.7827046003274845e-01  1.9987698631922543e-01  1.9288211555645113e-01  5.4858840623672034e-01  1.0162476629738326e+00  7.2198304522152112e-01  1.9458625343790395e-01  5.7250374107687108e-01  1.9019216617295287e-01  1.5764736312399594e+00  1.0900946616661613e+00  2.1852998687421299e-01  1.0693885374361161e+00  1.6862899449734667e+00  1.6914762998442843e+00  1.7060144899897376e+00  2.6350396223695105e-01  4.5221352716881158e-01  4.8628651672928686e-01  1.3131470955794706e+00  5.5473817364585531e-01  8.7354707421146871e-01  1.4562465653110104e+00  1.8966404965189662e-01  9.3266332458435108e-01  1.5282950991092330e+00  1.4513633767539500e+00  8.3925900379562568e-01  1.9020665516876323e-01  1.8323484169718907e-01  2.0588436188879616e-01  5.5600501946196590e-01  1.0766050774766971e+00  2.6848736456931904e-01  1.1507328799545102e+00  1.4919462834319304e+00  9.8911853548448558e-01  1.8474027913722502e-01  1.4343568258551893e+00  1.4460895797574753e+00  1.1825809110526238e+00  9.0155985158539931e-01  1.5535162154082274e+00  9.4268653690200122e-01  8.1913638963716906e-01  1.5712397465959174e+00  1.4890028176374976e+00  1.5749652229421616e+00  1.6536243762862706e+00  1.5847199224306312e+00  8.3956431445314261e-01  1.0675846539170413e+00  1.3436268748816722e+00  1.5820513225519008e+00  1.6538214467288279e+00  1.6484280782164398e+00  7.5866853650386434e-01  1.5094416341565586e+00  1.3266021108366870e+00  5.5786450265616017e-01  5.8196498666258611e-01  1.6844012423390053e+00  6.1681642324743191e-01  5.6636694830443124e-01  4.5418091386739312e-01  1.7875431269731343e-01  4.6367180096439914e-01  9.9649104046988213e-01  7.2103074174210391e-01  1.8915335940527658e-01  2.1002958371197719e-01  1.3495360232521072e+00  1.8048659637829509e-01  7.7255341878826556e-01  1.0218479241670584e+00  1.1596710105628671e+00  6.5046829498637260e-01  1.1327921929460039e+00  1.8717651006476085e-01  5.2384641989714897e-01  1.7550701908825012e-01  1.7077886739776220e+00  1.6666797893069443e+00  1.9542582959732246e-01  6.7314532534717431e-01  7.3364018510040185e-01  4.2999660481351548e-01  1.8540732883350117e-01  1.8350316076487536e-01  1.8105183854993259e-01  4.3943955873912188e-01  1.0216184599040103e+00  7.7385325607979405e-01  1.7318724003305239e-01  1.7509137937418964e-01  1.3232148313227619e+00  5.4212946416198515e-01  5.1963355437469039e-01  1.6907866765929895e+00  1.7100165976661794e+00  1.7305870050458294e+00  1.6163220005109404e+00  1.4068435005245312e+00  1.0260434949555512e+00  1.3281075762616539e+00  1.2761947100005264e+00  4.4797006804809042e-01  8.1044719291470324e-01  6.0526298725028049e-01  4.7422877254267520e-01  4.2224494175124683e-01  4.5093722470766384e-01  4.7942257481589201e-01  1.7549259888141386e-01  1.4897645747083306e+00  1.2995861859709874e+00  1.2037073228950039e+00  6.3161264339614720e-01  4.2539023138112353e-01  4.6607818396517159e-01  9.2733450919170712e-01  8.6525560777243593e-01  1.4815458602886531e+00  1.3353243732404245e+00  5.9942610603746560e-01  1.4643196748373586e+00  1.2711448858054719e+00  1.8794607734007582e-01  1.5630688128168142e+00  6.5320831879337171e-01  8.5588122834148050e-01  1.4563407648564040e+00  7.7588575281016336e-01  1.2918532522063517e+00  8.7579453363888404e-01  6.1674634896786051e-01  1.3179874645975278e+00  1.6318699314961478e+00  3.9589606646308600e-01  1.6988255518658019e-01  6.7260261745837624e-01  9.8884935749802749e-01  1.7227773964684998e+00  1.0194627948319002e+00  1.0380172745072263e+00  4.3349794544930237e-01  6.6977179145208066e-01  1.1148878269267792e+00  4.5415371492433448e-01  8.7451857828603674e-01  6.1520698035293553e-01  3.9705494842042843e-01  9.6507031599903759e-01  5.8620524239954874e-01  4.2364496949233005e-01  7.0221188160875692e-01  4.1937314116417385e-01  1.0938422187342729e+00  1.6310413711944824e-01  1.8164736764654515e-01  3.9400146916344247e-01  8.2760237069044551e-01  1.4056050953221844e+00  1.1440862044163045e+00  1.7148660988368449e+00  1.0903773684813050e+00  7.9654437708767489e-01  1.6444872038550049e+00  5.7996376472013289e-01  8.2615418239354566e-01  4.3884986182001234e-01  1.3279100970770659e+00  3.6875856968183618e-01  1.7737825467750365e-01  4.2826067877936108e-01  4.8741140120333604e-01  4.5519469742302043e-01  1.6850637134952069e+00  4.6844967414388672e-01  1.7149310323316252e-01  1.7432051160089324e-01  1.1995960725109385e+00  6.3911202333543116e-01  8.3484580213188930e-01  4.0142391669492633e-01  1.6142538199772221e+00  1.6466825946596506e+00  1.4050492022773624e+00  1.7093630820746757e+00  1.6009346089634288e-01  7.4587207109088582e-01  1.7006423180623436e+00  1.7308746683634781e+00  4.8375996046676689e-01  1.5842717615203352e+00  1.3099907069337606e+00  1.5341181043990049e+00  1.0267068754834277e+00  1.1390409347405941e+00  6.5973655829770150e-01  7.2489158215006488e-01  1.3203187824845410e+00  1.2655894891486779e+00  1.5256197666166018e+00  2.2311917860310382e-01  4.1694788870067429e-01  6.9400195740720849e-01  6.7710867811515363e-01  6.7654427597174693e-01  1.2127959082196782e+00  1.6397637305932444e+00  1.3252523446269799e+00  1.6617500636685880e+00  1.4871791818063611e+00  1.3433608502187968e+00  1.0858236437341990e+00  1.5531262071497673e+00  1.3155105016988029e+00  1.6650053740522748e+00  1.5904524170594783e+00  1.5249338082319908e+00  8.8112293531519692e-01  1.4697658588266980e+00  1.3877342653144022e+00  1.6055019060094564e+00  1.2504621072725632e+00  1.2408820184996814e+00  1.0970795181191975e+00  1.2983630932275001e+00  1.0598601092734585e+00  1.6076478606905129e+00  1.5534044672809372e-01  1.8682159374427432e-01  1.4172256428815699e+00  1.6724204319404086e+00  1.4733449925940554e+00  9.9584784731943521e-01  8.4481528509888815e-01  1.3690637109531907e+00  7.8798797282732980e-01  8.7417580732760003e-01  1.1092432132445602e+00  8.9149985540651089e-01  1.6084654562900788e-01  9.8539923971759069e-01  1.7174811648354493e+00  1.5928143299191051e+00  2.8744316404905257e-01  1.7690655479893375e-01  5.7990389467756864e-01  1.7816494298204444e-01  4.0858803533066962e-01  7.6188573859314668e-01  1.1427085984988055e+00  1.2879394444613188e+00  1.5281051034817570e+00  1.5917533657268468e-01  4.4352388094331008e-01  1.8161119994830485e-01  1.5515263112168115e-01  1.7075369282696466e+00  1.7434743432252270e-01  1.0636042288729743e+00  1.3003994980192504e+00  1.1634424164640353e+00  3.7575127466303804e-01  3.7724643426278492e-01  7.9342175792877478e-01  9.2381457826111080e-01  1.0196356971117955e+00  1.4285785288741448e+00  1.3917252528055473e+00  1.4633187753654378e+00  6.4272346800587887e-01  2.2640280596773696e-01  1.3685048209132085e+00  1.4802019100611363e+00  1.4533553518105791e+00  1.5579683334735255e+00  1.0898497346162632e+00  1.1550036689304772e+00  1.3167032404768071e+00  5.2244641325204144e-01  9.1538804177056876e-01  6.8036726997252051e-01  1.4419651887745859e+00  1.8912969921200620e-01  1.1098599286097357e+00  1.6689340001009392e+00  1.7045261297266079e+00  6.7338392468002495e-01  1.5191419704218347e+00  1.4560882507491107e-01  1.4589833041476892e+00  5.9300575991264648e-01  9.3511283832532499e-01  7.3120592884215574e-01  3.9580295413764083e-01  6.4338730937363