<?xml version="1.0"?>
<VTKFile type="UnstructuredGrid"  version="0.1"  >
<UnstructuredGrid>
<Piece  NumberOfPoints="18071" NumberOfCells="35544">
<Points>
<DataArray  type="Float64"  NumberOfComponents="3"  format="ascii">0.9486832980505138 0 0  0.9484724340806782 0.02000104469955538 0  0.9478399359086995 0.03999319812908447 0  0.9467860847054931 0.0599675729710886 0  0.9453113489503684 0.07991528981136745 0  0.9434163842227721 0.09982748108627622 0  0.9411020329108563 0.119695295024715 0  0.938369323837003 0.1395098995830973 0  0.9352194718004709 0.1592624863715497 0  0.931653877037369 0.1789442745695953 0  0.9276741245981944 0.1985465148295827 0  0.9232819836432135 0.2180604931661231 0  0.9184794066559997 0.2374775348298079 0  0.9132685285754754 0.2567890081634844 0  0.9076516658468453 0.2759863284393749 0  0.9016313153918442 0.2950609616753339 0  0.8952101534987531 0.3140044284285474 0  0.8883910346326832 0.3328083075649862 0  0.8811769901666499 0.3514642400029395 0  0.873571227034005 0.3699639324289635 0  0.8655771263028276 0.3882991609845931 0  0.8571982416729006 0.4064617749221782 0  0.8484382978959503 0.4244437002282196 0  0.8393011891198424 0.4422369432125932 0  0.829790977157478 0.459833594062067 0  0.8199118896811526 0.477225830356532 0  0.8096683183431869 0.4944059205463824 0  0.7990648168236594 0.5113662273895018 0  0.7881060988061126 0.5280992113463244 0  0.7767970358821309 0.5445974339314641 0  0.7651426553857218 0.5608535610204205 0  0.753148138158463 0.5768603661098937 0  0.7408188162464108 0.5926107335302548 0  0.7281601705297891 0.6080976616087488 0  0.7151778282865192 0.6233142657820195 0  0.7018775606906669 0.6382537816565753 0  0.6882652802469232 0.652909568015835 0  0.6743470381622587 0.6672751097724156 0  0.6601290216559174 0.6813440208643511 0  0.6456175512089487 0.6951100470939552 0  0.6308190777544996 0.7085670689080622 0  0.6157401798101144 0.7217091041184169 0  0.6003875605533189 0.734530310560997 0  0.584768044841788 0.7470249886930909 0  0.5688885761794213 0.7591875841269735 0  0.5527562136296766 0.7710126900990562 0  0.5363781286775311 0.7824950498734097 0  0.5197616020414676 0.7936295590785962 0  0.5029140204369025 0.8044112679767674 0  0.4858428732924924 0.8148353836640227 0  0.4685557494207815 0.8248972722010478 0  0.4510603336446699 0.8345924606730875 0  0.4333644033811983 0.8439166391783361 0  0.4154758251841748 0.8528656627438631 0  0.3974025512471733 0.8614355531682203 0  0.379152615868464 0.8696225007899122 0  0.3607341318794444 0.8774228661809444 0  0.342155287038158 0.8848331817646961 0  0.3234243403895067 0.8918501533573969 0  0.3045496185937731 0.898470661632525 0  0.2855395122250832 0.904691763507473 0  0.2664024720414594 0.9105106934518669 0  0.2471470052281184 0.915924864716955 0  0.2277816716156831 0.9209318704855235 0  0.2083150798749952 0.925529484941822 0  0.1887558836902123 0.9297156642610294 0  0.1691127779118977 0.9334885475178156 0  0.1493944946918097 0.9368464575135985 0  0.1296097996011066 0.9397879015221259 0  0.1097674877336993 0.9423115719530522 0  0.08987637979647611 0.9444163469332154 0  0.06994531818814397 0.9461012908053551 0  0.04998316306842656 0.9473656545440494 0  0.02999878841936526 0.9482088760886865 0  0.01000107810047723 0.9486305805933245 0  -0.01000107810047732 0.9486305805933245 0  -0.02999878841936514 0.9482088760886865 0  -0.04998316306842644 0.9473656545440494 0  -0.06994531818814406 0.9461012908053551 0  -0.08987637979647599 0.9444163469332155 0  -0.1097674877336992 0.9423115719530522 0  -0.1296097996011065 0.9397879015221259 0  -0.1493944946918096 0.9368464575135985 0  -0.1691127779118979 0.9334885475178156 0  -0.1887558836902122 0.9297156642610294 0  -0.2083150798749951 0.925529484941822 0  -0.227781671615683 0.9209318704855235 0  -0.247147005228118 0.9159248647169551 0  -0.2664024720414591 0.9105106934518669 0  -0.2855395122250831 0.904691763507473 0  -0.3045496185937729 0.8984706616325251 0  -0.3234243403895066 0.8918501533573969 0  -0.3421552870381577 0.8848331817646962 0  -0.3607341318794441 0.8774228661809446 0  -0.3791526158684641 0.8696225007899122 0  -0.3974025512471734 0.8614355531682203 0  -0.4154758251841746 0.8528656627438632 0  -0.4333644033811984 0.8439166391783361 0  -0.4510603336446696 0.8345924606730876 0  -0.4685557494207815 0.8248972722010479 0  -0.4858428732924923 0.8148353836640227 0  -0.5029140204369026 0.8044112679767673 0  -0.5197616020414676 0.7936295590785962 0  -0.536378128677531 0.7824950498734098 0  -0.5527562136296768 0.7710126900990562 0  -0.5688885761794211 0.7591875841269737 0  -0.5847680448417879 0.747024988693091 0  -0.6003875605533187 0.7345303105609973 0  -0.6157401798101142 0.721709104118417 0  -0.6308190777544995 0.7085670689080623 0  -0.6456175512089487 0.6951100470939551 0  -0.6601290216559171 0.6813440208643513 0  -0.6743470381622587 0.6672751097724156 0  -0.688265280246923 0.6529095680158352 0  -0.7018775606906668 0.6382537816565753 0  -0.7151778282865192 0.6233142657820195 0  -0.7281601705297891 0.6080976616087488 0  -0.7408188162464107 0.592610733530255 0  -0.753148138158463 0.5768603661098938 0  -0.7651426553857216 0.5608535610204208 0  -0.7767970358821308 0.5445974339314642 0  -0.7881060988061125 0.5280992113463245 0  -0.7990648168236594 0.5113662273895018 0  -0.8096683183431868 0.4944059205463825 0  -0.8199118896811526 0.477225830356532 0  -0.8297909771574777 0.4598335940620675 0  -0.8393011891198424 0.4422369432125932 0  -0.8484382978959502 0.4244437002282198 0  -0.8571982416729006 0.4064617749221782 0  -0.8655771263028273 0.3882991609845933 0  -0.873571227034005 0.3699639324289636 0  -0.8811769901666499 0.3514642400029395 0  -0.8883910346326833 0.332808307564986 0  -0.8952101534987531 0.3140044284285475 0  -0.9016313153918442 0.295060961675334 0  -0.9076516658468452 0.2759863284393752 0  -0.9132685285754755 0.2567890081634842 0  -0.9184794066559997 0.237477534829808 0  -0.9232819836432135 0.218060493166123 0  -0.9276741245981943 0.1985465148295829 0  -0.931653877037369 0.1789442745695954 0  -0.9352194718004709 0.15926248637155 0  -0.938369323837003 0.1395098995830971 0  -0.9411020329108563 0.1196952950247151 0  -0.9434163842227721 0.09982748108627618 0  -0.9453113489503684 0.07991528981136768 0  -0.9467860847054931 0.05996757297108869 0  -0.9478399359086995 0.03999319812908442 0  -0.9484724340806782 0.02000104469955522 0  -0.9486832980505138 1.161801964362116e-16 0  -0.9484724340806782 -0.02000104469955541 0  -0.9478399359086995 -0.0399931981290842 0  -0.9467860847054931 -0.05996757297108847 0  -0.9453113489503684 -0.07991528981136745 0  -0.9434163842227721 -0.09982748108627594 0  -0.9411020329108563 -0.1196952950247148 0  -0.938369323837003 -0.1395098995830973 0  -0.935219471800471 -0.1592624863715494 0  -0.9316538770373691 -0.1789442745695952 0  -0.9276741245981944 -0.1985465148295827 0  -0.9232819836432136 -0.2180604931661228 0  -0.9184794066559998 -0.2374775348298077 0  -0.9132685285754755 -0.256789008163484 0  -0.9076516658468454 -0.2759863284393745 0  -0.9016313153918442 -0.2950609616753337 0  -0.8952101534987533 -0.3140044284285469 0  -0.8883910346326832 -0.3328083075649862 0  -0.8811769901666497 -0.3514642400029397 0  -0.8735712270340051 -0.3699639324289634 0  -0.8655771263028275 -0.3882991609845931 0  -0.8571982416729007 -0.406461774922178 0  -0.8484382978959503 -0.4244437002282196 0  -0.8393011891198425 -0.4422369432125929 0  -0.8297909771574781 -0.4598335940620669 0  -0.8199118896811529 -0.4772258303565314 0  -0.8096683183431871 -0.494405920546382 0  -0.7990648168236597 -0.5113662273895012 0  -0.7881060988061124 -0.5280992113463246 0  -0.7767970358821309 -0.544597433931464 0  -0.7651426553857217 -0.5608535610204206 0  -0.7531481381584632 -0.5768603661098936 0  -0.7408188162464108 -0.5926107335302547 0  -0.7281601705297893 -0.6080976616087486 0  -0.7151778282865193 -0.6233142657820193 0  -0.7018775606906672 -0.638253781656575 0  -0.6882652802469235 -0.6529095680158347 0  -0.674347038162259 -0.6672751097724151 0  -0.660129021655917 -0.6813440208643514 0  -0.6456175512089486 -0.6951100470939552 0  -0.6308190777544994 -0.7085670689080624 0  -0.6157401798101141 -0.7217091041184172 0  -0.6003875605533191 -0.7345303105609969 0  -0.5847680448417881 -0.7470249886930909 0  -0.5688885761794213 -0.7591875841269736 0  -0.5527562136296765 -0.7710126900990563 0  -0.5363781286775317 -0.7824950498734093 0  -0.519761602041468 -0.7936295590785959 0  -0.5029140204369028 -0.8044112679767672 0  -0.4858428732924925 -0.8148353836640226 0  -0.4685557494207817 -0.8248972722010478 0  -0.4510603336446699 -0.8345924606730875 0  -0.4333644033811982 -0.8439166391783361 0  -0.4154758251841745 -0.8528656627438633 0  -0.3974025512471736 -0.8614355531682203 0  -0.3791526158684643 -0.8696225007899121 0  -0.3607341318794445 -0.8774228661809444 0  -0.342155287038158 -0.8848331817646962 0  -0.3234243403895075 -0.8918501533573966 0  -0.3045496185937727 -0.8984706616325251 0  -0.2855395122250827 -0.9046917635074732 0  -0.2664024720414597 -0.9105106934518667 0  -0.2471470052281185 -0.915924864716955 0  -0.2277816716156832 -0.9209318704855235 0  -0.2083150798749951 -0.925529484941822 0  -0.1887558836902128 -0.9297156642610293 0  -0.1691127779118983 -0.9334885475178155 0  -0.14939449469181 -0.9368464575135985 0  -0.1296097996011069 -0.9397879015221258 0  -0.1097674877336994 -0.942311571953052 0  -0.08987637979647602 -0.9444163469332154 0  -0.06994531818814387 -0.9461012908053551 0  -0.04998316306842625 -0.9473656545440494 0  -0.02999878841936558 -0.9482088760886865 0  -0.01000107810047755 -0.9486305805933245 0  0.0100010781004772 -0.9486305805933245 0  0.02999878841936524 -0.9482088760886865 0  0.04998316306842591 -0.9473656545440494 0  0.06994531818814352 -0.9461012908053552 0  0.08987637979647567 -0.9444163469332155 0  0.1097674877336991 -0.9423115719530522 0  0.1296097996011066 -0.9397879015221259 0  0.1493944946918097 -0.9368464575135985 0  0.1691127779118979 -0.9334885475178156 0  0.1887558836902125 -0.929715
[...]
<PointData  Scalars="f_29-2"> 
<DataArray  type="Float64"  Name="f_29-2"  format="ascii">0.0000000000000000e+00  0.0000000000000000e+00  0.0000000000000000e+00  0.0000000000000000e+00  0.0000000000000000e+00  0.0000000000000000e+00  0.0000000000000000e+00  0.0000000000000000e+00  0.0000000000000000e+00  0.0000000000000000e+00  0.0000000000000000e+00  0.0000000000000000e+00  0.0000000000000000e+00  0.0000000000000000e+00  0.0000000000000000e+00  0.0000000000000000e+00  0.0000000000000000e+00  0.0000000000000000e+00  0.0000000000000000e+00  0.0000000000000000e+00  0.0000000000000000e+00  0.0000000000000000e+00  0.0000000000000000e+00  0.0000000000000000e+00  0.0000000000000000e+00  0.0000000000000000e+00  0.0000000000000000e+00  0.0000000000000000e+00  0.0000000000000000e+00  0.0000000000000000e+00  0.0000000000000000e+00  0.0000000000000000e+00  0.0000000000000000e+00  0.0000000000000000e+00  0.0000000000000000e+00  0.0000000000000000e+00  0.0000000000000000e+00  0.0000000000000000e+00  0.0000000000000000e+00  0.0000000000000000e+00  0.0000000000000000e+00  0.0000000000000000e+00  0.0000000000000000e+00  0.0000000000000000e+00  0.0000000000000000e+00  0.0000000000000000e+00  0.0000000000000000e+00  0.0000000000000000e+00  0.0000000000000000e+00  0.0000000000000000e+00  0.0000000000000000e+00  0.0000000000000000e+00  0.0000000000000000e+00  0.0000000000000000e+00  0.0000000000000000e+00  0.0000000000000000e+00  0.0000000000000000e+00  0.0000000000000000e+00  0.0000000000000000e+00  0.0000000000000000e+00  0.0000000000000000e+00  0.0000000000000000e+00  0.0000000000000000e+00  0.0000000000000000e+00  0.0000000000000000e+00  0.0000000000000000e+00  0.0000000000000000e+00  0.0000000000000000e+00  0.0000000000000000e+00  0.0000000000000000e+00  0.0000000000000000e+00  0.0000000000000000e+00  0.0000000000000000e+00  0.0000000000000000e+00  0.0000000000000000e+00  0.0000000000000000e+00  0.0000000000000000e+00  0.0000000000000000e+00  0.0000000000000000e+00  0.0000000000000000e+00  0.0000000000000000e+00  0.0000000000000000e+00  0.0000000000000000e+00  0.0000000000000000e+00  0.0000000000000000e+00  0.0000000000000000e+00  0.0000000000000000e+00  0.0000000000000000e+00  0.0000000000000000e+00  0.0000000000000000e+00  0.0000000000000000e+00  0.0000000000000000e+00  0.0000000000000000e+00  0.0000000000000000e+00  0.0000000000000000e+00  0.0000000000000000e+00  0.0000000000000000e+00  0.0000000000000000e+00  0.0000000000000000e+00  0.0000000000000000e+00  0.0000000000000000e+00  0.0000000000000000e+00  0.0000000000000000e+00  0.0000000000000000e+00  0.0000000000000000e+00  0.0000000000000000e+00  0.0000000000000000e+00  0.0000000000000000e+00  0.0000000000000000e+00  0.0000000000000000e+00  0.0000000000000000e+00  0.0000000000000000e+00  0.0000000000000000e+00  0.0000000000000000e+00  0.0000000000000000e+00  0.0000000000000000e+00  0.0000000000000000e+00  0.0000000000000000e+00  0.0000000000000000e+00  0.0000000000000000e+00  0.0000000000000000e+00  0.0000000000000000e+00  0.0000000000000000e+00  0.0000000000000000e+00  0.0000000000000000e+00  0.0000000000000000e+00  0.0000000000000000e+00  0.0000000000000000e+00  0.0000000000000000e+00  0.0000000000000000e+00  0.0000000000000000e+00  0.0000000000000000e+00  0.0000000000000000e+00  0.0000000000000000e+00  0.0000000000000000e+00  0.0000000000000000e+00  0.0000000000000000e+00  0.0000000000000000e+00  0.0000000000000000e+00  0.0000000000000000e+00  0.0000000000000000e+00  0.0000000000000000e+00  0.0000000000000000e+00  0.0000000000000000e+00  0.0000000000000000e+00  0.0000000000000000e+00  0.0000000000000000e+00  0.0000000000000000e+00  0.0000000000000000e+00  0.0000000000000000e+00  0.0000000000000000e+00  0.0000000000000000e+00  0.0000000000000000e+00  0.0000000000000000e+00  0.0000000000000000e+00  0.0000000000000000e+00  0.0000000000000000e+00  0.0000000000000000e+00  0.0000000000000000e+00  0.0000000000000000e+00  0.0000000000000000e+00  0.0000000000000000e+00  0.0000000000000000e+00  0.0000000000000000e+00  0.0000000000000000e+00  0.0000000000000000e+00  0.0000000000000000e+00  0.0000000000000000e+00  0.0000000000000000e+00  0.0000000000000000e+00  0.0000000000000000e+00  0.0000000000000000e+00  0.0000000000000000e+00  0.0000000000000000e+00  0.0000000000000000e+00  0.0000000000000000e+00  0.0000000000000000e+00  0.0000000000000000e+00  0.0000000000000000e+00  0.0000000000000000e+00  0.0000000000000000e+00  0.0000000000000000e+00  0.0000000000000000e+00  0.0000000000000000e+00  0.0000000000000000e+00  0.0000000000000000e+00  0.0000000000000000e+00  0.0000000000000000e+00  0.0000000000000000e+00  0.0000000000000000e+00  0.0000000000000000e+00  0.0000000000000000e+00  0.0000000000000000e+00  0.0000000000000000e+00  0.0000000000000000e+00  0.0000000000000000e+00  0.0000000000000000e+00  0.0000000000000000e+00  0.0000000000000000e+00  0.0000000000000000e+00  0.0000000000000000e+00  0.0000000000000000e+00  0.0000000000000000e+00  0.0000000000000000e+00  0.0000000000000000e+00  0.0000000000000000e+00  0.0000000000000000e+00  0.0000000000000000e+00  0.0000000000000000e+00  0.0000000000000000e+00  0.0000000000000000e+00  0.0000000000000000e+00  0.0000000000000000e+00  0.0000000000000000e+00  0.0000000000000000e+00  0.0000000000000000e+00  0.0000000000000000e+00  0.0000000000000000e+00  0.0000000000000000e+00  0.0000000000000000e+00  0.0000000000000000e+00  0.0000000000000000e+00  0.0000000000000000e+00  0.0000000000000000e+00  0.0000000000000000e+00  0.0000000000000000e+00  0.0000000000000000e+00  0.0000000000000000e+00  0.0000000000000000e+00  0.0000000000000000e+00  0.0000000000000000e+00  0.0000000000000000e+00  0.0000000000000000e+00  0.0000000000000000e+00  0.0000000000000000e+00  0.0000000000000000e+00  0.0000000000000000e+00  0.0000000000000000e+00  0.0000000000000000e+00  0.0000000000000000e+00  0.0000000000000000e+00  0.0000000000000000e+00  0.0000000000000000e+00  0.0000000000000000e+00  0.0000000000000000e+00  0.0000000000000000e+00  0.0000000000000000e+00  0.0000000000000000e+00  0.0000000000000000e+00  0.0000000000000000e+00  0.0000000000000000e+00  0.0000000000000000e+00  0.0000000000000000e+00  0.0000000000000000e+00  0.0000000000000000e+00  0.0000000000000000e+00  0.0000000000000000e+00  0.0000000000000000e+00  0.0000000000000000e+00  0.0000000000000000e+00  0.0000000000000000e+00  0.0000000000000000e+00  0.0000000000000000e+00  0.0000000000000000e+00  0.0000000000000000e+00  0.0000000000000000e+00  0.0000000000000000e+00  0.0000000000000000e+00  0.0000000000000000e+00  0.0000000000000000e+00  0.0000000000000000e+00  0.0000000000000000e+00  0.0000000000000000e+00  0.0000000000000000e+00  0.0000000000000000e+00  0.0000000000000000e+00  0.0000000000000000e+00  0.0000000000000000e+00  0.0000000000000000e+00  0.0000000000000000e+00  0.0000000000000000e+00  0.0000000000000000e+00  0.0000000000000000e+00  0.0000000000000000e+00  0.0000000000000000e+00  0.0000000000000000e+00  0.0000000000000000e+00  0.0000000000000000e+00  0.0000000000000000e+00  0.0000000000000000e+00  0.0000000000000000e+00  0.0000000000000000e+00  0.0000000000000000e+00  0.0000000000000000e+00  0.0000000000000000e+00  0.0000000000000000e+00  0.0000000000000000e+00  0.0000000000000000e+00  1.2531997763626086e+00  9.3965077412504361e-01  9.3958004985763799e-01  9.3959949649214958e-01  9.3962705325774953e-01  9.1855459978140996e-01  8.8463193337270207e-01  7.5284267324635734e-01  7.5276973576921824e-01  6.8915591814778976e-01  6.8601031217890363e-01  6.6537493901318612e-01  6.5681208515060430e-01  1.1344958596629771e+00  1.1344894670510786e+00  1.1471537364554454e+00  5.8408068948353875e-01  5.8404215324441433e-01  5.8825663351667556e-01  5.8405452128117508e-01  1.1484577423643971e+00  1.1270928099665547e+00  5.6042131290113117e-01  5.6142858595178069e-01  1.0905045396348580e+00  5.4863759622340469e-01  5.3106184637894105e-01  5.7348809774132914e-01  5.8669563005739622e-01  5.2870753686474048e-01  9.4654564901455651e-01  6.6452740606193794e-01  4.4473111666644394e-01  4.4473567532232638e-01  4.4858685447104418e-01  4.4473997415790428e-01  9.5789916998732627e-01  8.6356454316285036e-01  8.6348067168666742e-01  9.6203046904676337e-01  8.6952307473551005e-01  1.2035734247966066e+00  1.2082399403001338e+00  9.4011627346654858e-01  4.1252407268550279e-01  4.0330499390104185e-01  4.1107309993134933e-01  4.0427866495922293e-01  6.8100965405940794e-01  4.0102604303262940e-01  4.0137416617886479e-01  3.8177143280184073e-01  3.9044069594124070e-01  8.8278799451546830e-01  8.0813228264941583e-01  9.1389844552147392e-01  3.8014554314606558e-01  3.7977816859725672e-01  1.1219398533172720e+00  9.7641697593770416e-01  1.2200551099437034e+00  1.2143287307159425e+00  1.1987326850848010e+00  7.7912214989289064e-01  1.1014192253394595e+00  3.9057603281347192e-01  1.0480727136054064e+00  1.0939225589722112e+00  3.7655792902119511e-01  3.5848469650773079e-01  7.5380730414902064e-01  8.4526889779309300e-01  3.5111181835936134e-01  1.0937921136547535e+00  1.2232690852370502e+00  1.0436813424262046e+00  1.0327668688904093e+00  1.0650074644583887e+00  1.0381946229013712e+00  7.8778960575006007e-01  3.3523890250650595e-01  3.3216499245944386e-01  3.3209255410767319e-01  6.9323210491040588e-01  3.3281599225849207e-01  3.5469424480333722e-01  8.1551733931161285e-01  7.1742254527993177e-01  3.2193911414728321e-01  1.0270855186908374e+00  7.7817495401343906e-01  8.2095236335255795e-01  6.7828123523715700e-01  3.1328914532783964e-01  9.6624679935582070e-01  6.7931117105084116e-01  6.7927254050367891e-01  3.1119632453869528e-01  1.0309494971055759e+00  3.1210724977309662e-01  7.3385318915757758e-01  3.1244534094112797e-01  6.4789977759699469e-01  7.8218878837198424e-01  7.5478530602490868e-01  1.1541636856725501e+00  1.0577135725778413e+00  1.0373231431846963e+00  2.9914519638321985e-01  6.2101877132906080e-01  2.8648191106617743e-01  1.0202432866420230e+00  7.2298510282984085e-01  8.0902428547342098e-01  3.1329729710814619e-01  6.2665065799930453e-01  1.2099289784423046e+00  8.1403754205776924e-01  5.5001633401003069e-01  6.3209429705114784e-01  3.3006574774933978e-01  3.0803627153297009e-01  5.4789022408172727e-01  9.0672939328236490e-01  1.1477665844158420e+00  7.5063155898630940e-01  5.9726716435208649e-01  1.1409579747493277e+00  2.8219513923734368e-01  6.0090590044636150e-01  3.7617194756603917e-01  2.9396535998916173e-01  5.6847953781416571e-01  9.1691544666466840e-01  2.8423988756169227e-01  2.8725223986016440e-01  2.7349366559063615e-01  2.7247727778242503e-01  7.0936448426156795e-01  1.2078751921585618e+00  4.5626334718164308e-01  9.9873221001752699e-01  5.8873631600430765e-01  1.1312630013466536e+00  5.0070580219802252e-01  1.2391827723256990e+00  5.5844746511096033e-01  1.0670975215875023e+00  2.4727012292739645e-01  3.7581545851909770e-01  2.7241838737952795e-01  8.9260612719670451e-01  8.1161618804533509e-01  1.0599464514075481e+00  8.2441235949129954e-01  2.4631516908996892e-01  2.4796469967473675e-01  2.4127696891195027e-01  2.4119002258887084e-01  5.0167015259137271e-01  7.8041163260844415e-01  1.1669450383889743e+00  5.1857544692223678e-01  4.8295117087302614e-01  6.8902862109246865e-01  8.2485997264637168e-01  5.7712356377275875e-01  8.6757534486690280e-01  9.8458650568319661e-01  1.2404202207958730e+00  1.1698980229180902e+00  5.2871515802694269e-01  8.1466814250829100e-01  2.5309432071399873e-01  1.1413070791942956e+00  1.0628267163607172e+00  9.4857428660121390e-01  5.2717258631880681e-01  1.0424517317656874e+00  5.5352466016490254e-01  8.6965151944927099e-01  9.5220981908979208e-01  5.1609243683146822e-01  8.3976446589787690e-01  4.8618612502416686e-01  5.5256084281391171e-01  1.1670499410479398e+00  1.2406719759596121e+00  1.1735997577922999e+00  2.2629678707747572e-01  2.3539415847276143e-01  9.2086666156111707e-01  2.2767843860978917e-01  2.4611510319735794e-01  9.0544169274891773e-01  8.1555244689166106e-01  7.3760769285628425e-01  8.1551382869993927e-01  7.2671681669821120e-01  9.4652444657980916e-01  7.3709498222227099e-01  5.6539650811323361e-01  2.2860892855445483e-01  2.1929448471663118e-01  2.1963723777460287e-01  4.9858670225158691e-01  8.4386739611352535e-01  5.0013603866465439e-01  4.8138145489214323e-01  2.2148428204397161e-01  2.2014734475985734e-01  9.7210903475949761e-01  1.0598640795944632e+00  2.1970280826258334e-01  1.0416564667174657e+00  1.0360934624482327e+00  1.1198552979118055e+00  2.1186292258086584e-01  9.3346862471497560e-01  2.1700989356714021e-01  1.2433716788219435e+00  6.6677413087660220e-01  2.3640745941161165e-01  2.2435902023014645e-01  2.1226133388454513e-01  1.0194370661325647e+00  2.0852623056204958e-01  2.7484180938954711e-01  4.2336263656820916e-01  2.3114311916396235e-01  2.0712315850856669e-01  5.6018922202437038e-01  4.5326894426984604e-01  4.6906874268303617e-01  4.4890231077833009e-01  2.1692966274543332e-01  6.0428227075561147e-01  2.2540238111481856e-01  4.1853386863973907e-01  2.0306340483639382e-01  1.1813454861158206e+00  1.2013595700553175e+00  4.6340731178663536e-01  4.8511033811139431e-01  7.9438635119899925e-01  1.2021434758375922e+00  5.7606632455443674e-01  9.8331308751523117e-01  9.3880605772163306e-01  1.1782513401976740e+00  5.1194894462886509e-01  7.5721456947026022e-01  6.9546637755398355e-01  5.2609651902839882e-01  2.0328395518480186e-01  2.1327411002980931e-01  2.0309471496864687e-01  2.5252598851959501e-01  9.4275576499875413e-01  9.4614686624874356e-01  7.2546351532477282e-01  2.0786227191577542e-01  7.1797636337830673e-01  1.0536692327590036e+00  2.0330898563670496e-01  8.2847795887141140e-01  1.0974727696214810e+00  1.0924650237199895e+00  1.2219842093727495e+00  1.1531089304805588e+00  7.1888162473093187e-01  1.2449347311300374e+00  2.0730499625889520e-01  1.1067148258322257e+00  8.7263974842340863e-01  9.5447693145991097e-01  7.9990298876597954e-01  7.5235046594760768e-01  7.7049710695132168e-01  2.0881561999654033e-01  1.1363510088223505e+00  5.4060785269609846e-01  9.7074492136326296e-01  6.6219048842595285e-01  8.2749324956127857e-01  1.0313567672456236e+00  1.0334139743212403e+00  1.1068175205553870e+00  2.4851506793311082e-01  1.0916029861765739e+00  6.0287421964037091e-01  1.1597579749214213e+00  7.1580784364194627e-01  6.5342942369021750e-01  1.2407859431968935e+00  1.0187051108601404e+00  4.8194880860105294e-01  6.9158834762313093e-01  5.4995974458355890e-01  1.1842237281439632e+00  4.2856169859322674e-01  8.8775474245980379e-01  5.8992315269421047e-01  1.8955523467536917e-01  1.8569314837005982e-01  1.2132482182882027e+00  6.5153504134138918e-01  1.9714910876248262e-01  4.3775906143982524e-01  4.7417668770448185e-01  1.9592841851562895e-01  4.3564686114437684e-01  1.9001811363702281e-01  1.9333579189991773e-01  1.1007087779242897e+00  1.8429027376100141e-01  6.4384476355902531e-01  7.0414785136403557e-01  7.1300257864037642e-01  5.3732175424167006e-01  1.8258661263748741e-01  1.0372005099929094e+00  1.0324535231603051e+00  1.1120569322624965e+00  9.3447874910638806e-01  4.0029954822202640e-01  9.6111587441684998e-01  7.6240327089964088e-01  8.6157107666879040e-01  1.2312654423932621e+00  1.7988601113279984e-01  1.8043200663238773e-01  4.5565253262463368e-01  1.0074162587771112e+00  1.0987639361523698e+00  6.8839299793339181e-01  1.0170976658513649e+00  9.9780722154118739e-01  6.0839395945726416e-01  8.4682600272584352e-01  9.6224357749315270e-01  7.1873473816961964e-01  8.2403043378503460e-01  6.9942727667361804e-01  8.6192830195188785e-01  3.8145347562018228e-01  4.6179620998000415e-01  9.0638368042462603e-01  6.6453289158879048e-01  1.1806431215306463e+00  1.8433435354524053e-01  8.7424936619032534e-01  8.7980893056260867e-01  4.9601044421219181e-01  4.2601467365324824e-01  3.9669865594294790e-01  3.8352189219497962e-01  1.1858109440174116e+00  3.7207709188142907e-01  8.5968229931588835e-01  9.9317743582524309e-01  5.9249884299906452e-01  6.3501768799253933e-01  1.1128382585905314e+00  3.8925892762969400e-01  3.8249318726622727e-01  6.7020875697165805e-01  6.4709479033811745e-01  8.9193636080296379e-01  3.9012783603039092e-01  1.2262056943355095e+00  7.6236228118927329e-01  1.0202911806180683e+00  1.1042054848515510e+00  1.6693729953496073e-01  3.8551991112458539e-01  8.4694926443752916e-01  1.6987640401449255e-01  8.3290574597358602e-01  2.6248599796487415e-01  1.7034187145053237e-01  1.6568778221146044e-01  1.6990664278890605e-01  7.6933858998340177e-01  1.2471709457868521e+00  8.4299967004817722e-01  1.7074402392491059e-01  1.6315489300445646e-01  9.6228529347457115e-01  6.1288794682925962e-01  1.1738693588973867e+00  6.8230458739359645e-01  6.3571599361949338e-01  1.6688235397934845e-01  6.8326291779542114e-01  9.4801356218966859e-01  1.0940842353003530e+00  1.6668995982448553e-01  4.0909136084446662e-01  6.3324116725100699e-01  5.6516260731813761e-01  4.3851089658565606e-01  3.6157557959891862e-01  1.7370538641896602e-01  3.7580227269443317e-01  4.2014459423824774e-01  4.4279427108539959e-01  3.6901204609126442e-01  9.8948736094052514e-01  3.7014915456980374e-01  1.1445998571100893e+00  7.1882886929025314e-01  7.6884596890526546e-01  5.6280665115585304e-01  5.2135799355595791e-01  2.1509753365027748e-01  9.9899460432361153e-01  6.9783100475041138e-01  4.3076661168585706e-01  3.9940241423645373e-01  6.0273597068858420e-01  1.2297979574098783e+00  7.1119111527840106e-01  4.3798515826436135e-01  5.9556008604427213e-01  1.0557658057541655e+00  1.6596634425000892e-01  1.5811336381879434e-01  7.7792645949614614e-01  8.5023169438184398e-01  7.9549122342756207e-01  1.6188653683689619e-01  1.0834897259171574e+00  1.1894788952604725e+00  7.8318077354879945e-01  5.5897340021974673e-01  3.7898939489508399e-01  1.1368560428820196e+00  1.1952165947710469e+00  5.3772073313374735e-01  9.2636071597901071e-01  3.3648386708414690e-01  1.6076705312870379e-01  8.2893597603639912e-01  1.5304745096240985e-01  1.1069508043757317e+00  6.8015701018746733e-01  9.8481780790656548e-01  1.0551880538976199e+00  9.7567929425278632e-01  1.0915860483097570e+00  7.8423405528632717e-01  1.5553187470113036e-01  1.5746376562407935e-01  1.6043570911196955e-01  4.5643572975322633e-01  3.8477104420215441e-01  7.2535064894763057e-01  5.0579900172624226e-01  3.5582796739536998e-01  1.5737390162640127e-01  1.2029380594113104e+00  5.0993820651769284e-01  5.6951244075825069e-01  1.1671176384193931e+00  4.6060609794794288e-01  9.1664365509649015e-01  1.0844780852139935e+00  1.4920314348733985e-01  1.0020751572519404e+00  4.6392154965972743e-01  1.1754526504123406e+00  1.2227407554192549e+00  3.3745367340710353e-01  3.5769318541671535e-01  1.6318986959761461e-01  9.6119383951039161e-01  1.4576987816932499e-01  8.2726346073022095e-01  1.0750299774566499e+00  9.8509580144689302e-01  8.9204371912867797e-01  6.3957055259375761e-01  3.2987455239130259e-01  5.8801023517864581e-01  1.5253136327784228e-01  6.3532563718071111e-01  7.4358760117571165e-01  8.6564271798433612e-01  8.8300237130541470e-01  7.9058626839307455e-01  5.1661511502161162e-01  5.9452459853691364e-01  6.5602272254924709e-01  3.2759917321131221e-01  1.1071119208552278e+00  1.4389170840358276e-01  1.1521185964862701e+00  8.9198589674669471e-01  7.3207332479924048e-01  7.7432846569497971e-01  8.2572201274410995e-01  8.8436883133733624e-01  6.4927146841298145e-01  1.0912243534844808e+00  1.1734378888671293e+00  5.3759271334611147e-01  1.4732760381973015e-01  9.8205998281721785e-01  3.3901746094859864e-01  8.9718984137666180e-01  1.1070073343340618e+00  5.4095885943274635e-01  1.1438260914874419e+00  1.2034705926273457e+00  6.6087200817252312e-01  1.0417607278653584e+00  6.1286377741724907e-01  6.5563090181969863e-01  5.2304211727915428e-01  7.2483505855758812e-01  6.4549099426321810e-01  9.4316390268208739e-01  1.4999071035701525e-01  1.0001707488269038e+00  3.6789821242444465e-01  6.0982932018756408e-01  8.5580170782112741e-01  1.4995204077972327e-01  3.4755848548091001e-01  1.2004168158635267e+00  4.3424264843498