<?xml version="1.0"?>
<VTKFile type="UnstructuredGrid"  version="0.1"  >
<UnstructuredGrid>
<Piece  NumberOfPoints="387" NumberOfCells="708">
<Points>
<DataArray  type="Float64"  NumberOfComponents="3"  format="ascii">0 3 0  0 -3 0  6 -3 0  6 3 0  3 -3 0  6 0 0  3 3 0  0 0 0  3 0 0  0 -1.5 0  1.5 -3 0  1.5 3 0  0 1.5 0  6 -1.5 0  4.5 -3 0  6 1.5 0  4.5 3 0  4.25 -1.25 0  1.75 1.25 0  2.25 -1.5 0  4.5 0.75 0  1.541666666666667 -0.2083333333333333 0  3.219827586206896 1.521551724137931 0  1.125 -1.875 0  4.875 1.875 0  0.8702651515151515 0.631628787878788 0  2.25 2.214285714285714 0  3.316176470588236 -1.904411764705882 0  5.214285714285714 -0.75 0  5.03125 -2.03125 0  0.96875 2.03125 0  4.041666666666667 -0.2083333333333333 0  0.8205128205128206 -0.9134615384615387 0  3.942582294752138 2.189194098250713 0  3.061487638533674 -0.968243819266837 0  2.192708333333333 0.4427083333333334 0  4.157850026972511 -2.182329047049442 0  2.331456616463011 -0.5285296485744057 0  3.654761904761905 0.5654761904761902 0  5.25 1.125 0  2.563673341677096 -2.280663329161452 0  5.126674107142857 0.1283482142857142 0  0.75 -3 0  0 -2.25 0  6 2.25 0  5.25 3 0  0.7680051888903191 -0.1384245958639337 0  1.617229471026718 -1.006949429867069 0  4.218940341429579 1.468686552856807 0  3.75 -3 0  2.25 -3 0  0.75 3 0  5.25 -3 0  6 -0.75 0  0 -0.75 0  0 0.75 0  2.25 3 0  6 -2.25 0  0 2.25 0  3.75 3 0  6 0.75 0  1.787573018358365 -2.279142327213878 0  3.195025188237337 2.273430909158844 0  2.528159645294386 1.151699106559287 0  1.041598427383826 1.322848427383826 0  1.520951704545454 0.4634232954545453 0  1.580357142857143 2.325892857142857 0  4.919642857142857 -1.361607142857143 0  4.54981623521892 -0.6483700862895494 0  2.99317863826574 0.6697091957925523 0  3.450169349029507 -0.4574865881858001 0  3.605016126014028 -1.323102984840902 0  2.745144658907412 1.882241931337371 0  0.4898065586600511 1.092777516238393 0  0.5 -1.875 0  1.217028489597945 -2.469323836800685 0  1.659912685567181 -1.604738056701542 0  5.4375 1.6875 0  5.34375 2.34375 0  4.52741779500503 2.384139265001677 0  3.375 -2.514804579549941 0  0.5446428571428571 -2.455357142857143 0  2.766554087216865 -1.745795909102064 0  4.525516559010988 0.1490283123570637 0  3.87554132162248 -0.8280516069565407 0  4.53622906132958 -1.76963146596888 0  0.4243951612903226 1.875 0  0.554851858345021 2.446861709948876 0  5.575604838709677 -1.875 0  5.445148141654979 -2.446861709948876 0  4.875 -2.575604838709677 0  1.440573466105381 1.721823466105381 0  2.193519495405082 1.631799415080963 0  5.472630128027442 -1.330813078900983 0  4.750126894286386 1.343813447143193 0  5.607142857142857 -0.375 0  2.625 2.607142857142857 0  0.3921763197810531 0.375 0  5.60901753622775 0.3750000000000001 0  1.125 2.613454943235572 0  3.701856738980915 1.163867513386733 0  3.736112850688509 1.696746876851408 0  3.519183195491339 0.06065128742606851 0  3.973620778217027 -1.693401606145563 0  0.8125 -1.444978632478633 0  1.256657745408029 -0.6381828923025001 0  0 -1.125 0  5.019997778514942 0.6475044429701156 0  4.125 3 0  1.285569332703024 0.8955310332120207 0  0 -0.375 0  0.4638922275641027 -0.5625 0  2.056635259780241 -0.07226025978024064 0  2.130475508371123 -1.000827820434028 0  2.677484372338113 -1.267299126394495 0  2.848680878891876 -0.4956836878192376 0  4.937901885089369 -0.3340245904575954 0  4.393563081308854 1.919544166973803 0  4.053859126323572 0.2813938488760716 0  1.181051704329518 0.1167440895674965 0  1.971354166666667 2.607142857142857 0  4.875 3 0  2.519350561152006 0.08093582719875507 0  3.139443301924015 -1.442524927271905 0  6 2.625 0  1.849169256239503 1.945480934753207 0  1.867196483071171 0.7892354369530077 0  1.192506522009051 -1.184888428863342 0  3.375 3 0  3.603234392481833 2.536866305538572 0  3.846752908916648 -2.537707634073423 0  2.014339897513945 -1.886932065281681 0  4.038392037966526 0.8363324773944992 0  4.421242701722609 -2.552534687860327 0  3.715389848650903 -2.108856956172843 0  2.985668138820625 1.127780908772207 0  0.4500794934449803 -1.173696061598557 0  3.366760888116476 0.8891914618875614 0  1.869163043700093 -0.6107175804171328 0  2.175114838273305 -2.53928723780967 0  3.014417665538299 -2.241523065744933 0  2.625 -3 0  2.819968145332426 -2.617202329573456 0  5.625 1.3125 0  5.563263538826679 0.814027077653358 0  5.625 3 0  2.550041671270923 0.7074928970804664 0  4.014583091741168 2.59891853892166 0  0.6440729668673318 1.499523832583132 0  5.219449799568244 -1.660557808485412 0  3.474012636702472 -0.9300738420779746 0  0.8125 -2.142857142857143 0  1.875 -3 0  4.945010515846405 2.554471797033147 0  2.611388969012422 -0.8478354915063726 0  3.223746055611014 0.3371683159691745 0  4.843939757110898 -0.9483610977948225 0  4.66556954816842 -2.220888354477256 0  4.125 -3 0  4.448108395110625 -0.2524000502731018 0  5.63671875 2.05078125 0  2.822484133964224 1.491327727709286 0  3.378213092764193 1.903125093887009 0  5.607142857142858 -0.9231200445788541 0  2.12639693023183 1.100450516019641 0  5.625 -3 0  0.375 3 0  0 2.625 0  6 -2.625 0  0.3931307155906299 -0.01856779822591927 0  0.7651723094668359 0.253768144801553 0  0.8549199714190221 -0.5218333744252657 0  1.421989550604507 -2.133299471886336 0  1.582611957351803 -2.615166692128227 0  4.420331038793115 1.133144382396504 0  0.375 -3 0  0 -2.625 0  5.078156723571596 1.54697017071479 0  1.877250715260938 -1.288801575378032 0  2.409169073010687 -1.916147168931784 0  1.146151077069952 -0.268000681695328 0  1.726784828652036 0.1335728643263411 0  2.745628549924675 0.3838821021397905 0  3.011490900297165 2.613625569196862 0  5.62463365164608 -4.137655439684362e-05 0  1.875 3 0  1.125 3 0  6 0.375 0  2.625 3 0  6 -1.125 0  6 -0.375 0  4.875 -3 0  6 -1.875 0  3.375 -3 0  1.125 -3 0  0 -1.875 0  0 0.375 0  0 1.125 0  0 1.875 0  6 1.125 0  6 1.875 0  4.813017731148975 0.9677363687196439 0  2.807371623148303 2.264962208227767 0  0.3692953377255688 0.7436406761680247 0  5.615625 2.615625 0  0.9395725521479794 0.9812935874921043 0  1.390920759130215 1.238984550166515 0  0.9588795022085095 1.672288500195331 0  0.87712392565124 -2.641031728267331 0  0.3665732993114588 -1.532068934251388 0  1.841944504733106 1.591700334213738 0  4.832970185136452 0.3385359233091246 0  4.169083540479082 -0.5746148619765254 0  5.281697083409333 -0.2046640461936881 0  4.072845380968044 1.784516523483641 0  1.293029195762321 -1.543079049035419 0  4.878733886054284 -1.720697370582964 0  3.609167475697567 -1.687579152754035 0  4.836981942878573 2.222259978217028 0  4.204938267037067 -0.9128589669335569 0  5.183079748175263 -1.111742407358677 0  1.22880920402559 2.273525645756405 0  1.469404041858679 2.654509729682302 0  4.566761045622856 -1.414165869120005 0  4.531680518427715 1.606803989975667 0  1.918929241273175 2.27471131819245 0  3.526908551984126 2.207147627530056 0  1.85683899811842 0.4533569963423589 0  1.173935704088662 0.4636872214645547 0  2.116602160898525 -2.207718541460878 0  4.51821874648995 -1.042568353750147 0  2.721551512787618 -0.1859357475290837 0  5.294921875 2.001953125 0  5.288671874999999 2.670703125 0  2.199940744527116 0.7756512213396931 0  4.090519467638897 1.163401080812838 0  2.298177083333333 2.670581371753247 0  2.484362362207526 -2.687319997637033 0  3.300530569898859 1.207053005217563 0  3.936078051808127 -1.362164062673065 0  5.341218841330105 0.5689885832563615 0  4.226314635599414 0.5638853401248238 0  2.524510956818563 1.635483567726497 0  0.3219546452225031 1.389066019009203 0  3.139061555368706 -0.3133905221155423 0  3.145569907612562 -0.6461828528638952 0  3.701427442033566 -0.2272880199383185 0  1.686782510365738 -1.934662341426927 0  2.427696494631844 1.944064773844184 0  3.901817839425732 1.422433381251312 0  2.356489883772755 -0.2025512972825912 0  4.820757576351118 -0.01647699434507374 0  3.064415631228375 1.809719380809516 0  4.643002705009462 2.69782572459795 0  4.31624250429496 2.728112685900672 0  1.520100694408069 -1.314302747998057 0  3.754559308601717 -0.5375020107416889 0  0.25 -2.0625 0  0.8125 -1.826636904761905 0  4.861738621091127 -0.6367294570749906 0  1.545149590740081 2.015832101819233 0  3.857113324620078 0.04127675193819436 0  0.2479605082936806 -0.9375 0  4.21293081604216 2.352874368135467 0  3.123697687162562 -2.708090473740421 0  3.415275466010259 -2.202892416689829 0  3.601103065320932 -2.727566580522146 0  1.558629964945672 -0.5289921609136927 0  3.324859026263307 -1.198136798699183 0  2.424350759683917 -1.092246517929194 0  2.746461744851735 0.9398108087856579 0  0.8882026075771248 2.364936378889839 0  0.8066140242673685 2.679750706449505 0  4.504454978490482 0.4491616076730165 0  4.26881784709759 -0.009649566552704852 0  1.3125 -2.75919801263958 0  1.120577805361368 -2.179971784090952 0  3.734048623985226 0.8602850349907256 0  3.527828882622877 1.432983527791925 0  1.959527908877504 -1.578124930685265 0  0.7602573574724077 1.220872343399509 0  0.6691217533356228 0.8531987603309893 0  1.877213035764122 -2.564340152892596 0  3.32172153715047 2.685939810104955 0  4.285565286275464 -1.569057178671076 0  4.227521511146333 -1.876903861267543 0  5.34375 1.40625 0  5.71875 1.59375 0  1.56245959534423 0.766197796710638 0  0.2458241530773257 2.4375 0  0.2794123857609179 2.138568368155198 0  5.754175846922674 -2.4375 0  5.720587614239082 -2.138568368155198 0  0.6472458227887359 2.124973059628837 0  5.124241021325378 -2.352544055105642 0  5.189172233440652 -2.675873509996353 0  5.364643151640443 -2.12768524739804 0  2.298896485720138 1.348573610321417 0  0.6008689899200503 -2.745193425346304 0  0.307092513690391 -2.651812055231556 0  0.2683745826107009 -2.363146293324415 0  0.5223214285714285 -2.165178571428571 0  0.3925308914031174 2.699891746740618 0  5.607469108596883 -2.699891746740618 0  2.138365140930822 1.917102089073091 0  1.25507379660067 1.953406658386351 0  4.135759889512124 -2.476847355718572 0  0.5330865684534913 -0.8980875812659357 0  2.548249345531056 -1.538893887888457 0  2.67686064875775
[...]
<PointData  Scalars="f_30-2"> 
<DataArray  type="Float64"  Name="f_30-2"  format="ascii">1.0000000000000000e+01  0.0000000000000000e+00  0.0000000000000000e+00  1.0000000000000000e+01  0.0000000000000000e+00  4.9999092749575160e+00  1.0000000000000000e+01  4.9999092749575160e+00  4.9999090694445680e+00  2.4999357680333283e+00  0.0000000000000000e+00  1.0000000000000000e+01  7.4999358771512741e+00  2.4999357680333283e+00  0.0000000000000000e+00  7.4999358771512741e+00  1.0000000000000000e+01  2.9165946833386620e+00  7.0832611574008819e+00  2.4999356406130482e+00  6.2499161644164261e+00  4.6526875354177184e+00  7.5358560078340995e+00  1.8749495755036327e+00  8.1249495392195517e+00  6.0526287497299771e+00  8.6904398203946567e+00  1.8259311829456659e+00  3.7499159824151218e+00  1.6145392216356547e+00  8.3853725507644210e+00  4.6526875373907135e+00  3.4774835281295235e+00  8.6486193522589865e+00  3.3861810258721214e+00  5.7377588821030008e+00  1.3627472194540746e+00  4.1190299635197452e+00  5.9423734966741311e+00  6.8749245442564320e+00  1.1988610418421508e+00  5.2138231326752598e+00  0.0000000000000000e+00  1.2499652206597298e+00  8.7499652478509269e+00  1.0000000000000000e+01  4.7692017963399209e+00  3.3216724341018851e+00  7.4477456144457888e+00  0.0000000000000000e+00  0.0000000000000000e+00  1.0000000000000000e+01  0.0000000000000000e+00  3.7499160987490323e+00  3.7499160987490323e+00  6.2499161612185405e+00  1.0000000000000000e+01  1.2499652206597298e+00  8.7499652478509269e+00  1.0000000000000000e+01  6.2499161612185405e+00  1.2013959809714285e+00  8.7890177713878703e+00  6.9194235902628156e+00  7.2046774353515763e+00  5.7722839616372061e+00  8.8764566670161233e+00  2.7305860071935557e+00  3.9192974598109651e+00  6.1160966616381875e+00  4.2374340464938678e+00  2.7947585020740608e+00  8.1370196991565535e+00  6.8212194069726557e+00  1.8749495598196908e+00  8.8443537173062492e-01  2.3253759365215507e+00  7.8124423532236751e+00  8.9062194506085195e+00  8.9735366276302493e+00  8.0863623748338009e-01  9.0771257201747135e-01  2.0902847137428640e+00  5.2482899588904752e+00  3.6198316980282859e+00  2.0505597094396721e+00  8.1249495184705225e+00  9.0780769156346235e+00  1.8749496215099428e+00  9.2187126392718366e-01  7.0730523252449040e-01  7.8696494549160176e+00  7.7196060714572079e+00  2.7819084818233808e+00  7.2396198661928040e+00  4.3749109511044288e+00  9.3452195601352201e+00  5.6249108264155634e+00  5.6249109292930415e+00  9.3557399737110938e+00  6.9397048273599635e+00  7.8278542341576705e+00  5.1009947124042503e+00  2.1776066243218848e+00  2.5916363089464816e+00  3.9362761352235860e+00  3.1249244953279658e+00  6.0790884064329109e+00  1.0000000000000000e+01  6.4924705609231870e+00  4.3749108923244249e+00  4.0624131164102639e+00  4.8794754996372225e+00  3.3318749895457791e+00  2.8877631299835516e+00  4.1737727413928036e+00  4.4432029168701224e+00  8.1991914610457144e+00  5.4688999708199271e+00  5.1944827606253714e+00  9.3452195094112298e+00  1.0000000000000000e+01  5.1348023699480310e+00  2.5957253857530964e+00  9.3749822760539914e+00  8.2424205595284938e+00  6.3153090893755834e+00  3.0251119365373702e+00  1.0000000000000000e+01  9.2280887030707088e+00  7.7046548983843877e-01  1.8550632429630620e+00  6.3938052353064299e+00  7.4575440106573354e-01  1.4851975077021726e+00  6.8795593153939008e+00  3.0437657184327342e+00  6.4819045573961569e+00  3.9820510786298002e+00  7.6783291413292787e-01  1.2640930262904533e+00  0.0000000000000000e+00  6.3797801594833270e-01  7.1874297204086783e+00  6.3566288147553971e+00  1.0000000000000000e+01  6.1790700933973257e+00  9.3315119618281663e+00  7.4991421788778103e+00  2.2323450107260743e+00  3.4497965450735797e+00  1.4285320027126096e+00  0.0000000000000000e+00  9.2574320161630386e+00  3.5868586701181449e+00  5.5618578500772813e+00  3.4193183309470898e+00  1.2984833947370680e+00  0.0000000000000000e+00  4.5792431600797521e+00  8.4179253587162250e+00  7.4854816564846010e+00  8.1718257527060274e+00  3.4613862549680707e+00  6.8340081279573530e+00  0.0000000000000000e+00  1.0000000000000000e+01  9.3749822760539914e+00  6.2498229722824339e-01  4.9689628736992670e+00  5.4228568359841933e+00  4.1301900904780480e+00  1.4444610240491083e+00  6.4137063760999202e-01  6.8884985237586109e+00  0.0000000000000000e+00  6.2498229722824339e-01  7.5782209102170501e+00  2.8519265366263671e+00  1.8063725498780299e+00  4.5532422151678382e+00  5.2225307137495589e+00  5.6397144638583452e+00  9.3560243567739629e+00  4.9998402029657365e+00  1.0000000000000000e+01  1.0000000000000000e+01  5.6249108457603443e+00  1.0000000000000000e+01  3.1249244953279658e+00  4.3749108923244249e+00  0.0000000000000000e+00  1.8749495550535777e+00  0.0000000000000000e+00  0.0000000000000000e+00  1.8749495550535777e+00  5.6249108457603443e+00  6.8749244306274448e+00  8.1249494947459624e+00  6.8749244306274448e+00  8.1249494947459624e+00  6.6128145409870767e+00  8.7749028710952484e+00  6.2393172534630565e+00  9.3593568152223465e+00  6.6354102479425627e+00  7.0649019631165331e+00  7.7870893375280561e+00  5.9826348217648551e-01  2.4464886338627969e+00  7.6527728364979657e+00  5.5641370942934314e+00  4.0422218252632076e+00  4.6588028518718563e+00  7.9741402206209324e+00  2.4281388371693442e+00  2.1321146715418728e+00  2.1873104195213222e+00  8.7037306516770911e+00  3.4784877726599883e+00  3.1470201624102412e+00  8.7891756897830593e+00  9.4241665146318923e+00  2.6429898384927188e+00  7.6779460175014336e+00  8.7911518804563045e+00  8.6785427736230378e+00  5.7555067788363994e+00  5.7727238501688829e+00  1.3204324972957209e+00  3.2623084472785520e+00  4.6900168901117407e+00  8.3365431807839148e+00  9.4511562789995889e+00  6.2926685067050672e+00  6.9389273485674181e+00  9.4509533521874189e+00  5.2111854160397519e-01  7.0116818044342430e+00  2.7296578654999015e+00  5.9482277195781084e+00  5.9397220672471489e+00  7.7257463466144607e+00  7.3150420772284344e+00  4.4775929297097612e+00  3.9229429235842344e+00  4.6210965380310043e+00  1.7755147120446171e+00  8.2400603022168699e+00  7.3706555488469343e+00  4.6623241862128326e+00  4.9724476251110543e+00  8.0161459851565500e+00  9.4963619089867066e+00  9.5468415883737556e+00  2.8094253846753285e+00  4.1040759625033276e+00  1.5624572441295250e+00  1.9555528919028105e+00  3.9386985314818990e+00  8.3596754547433267e+00  5.0687039241083403e+00  3.4374198463191705e+00  8.9214270517010537e+00  4.8650205165889526e-01  1.3284758538040979e+00  4.5404279970604305e-01  4.1182591625096423e+00  3.0030318076247213e+00  3.1795127905861653e+00  6.5662714056005695e+00  8.9415309945465822e+00  9.4662360270271577e+00  5.7485144671649167e+00  4.9838266534709685e+00  4.0132524972575845e-01  1.3666759182863424e+00  6.4337266116368257e+00  7.3882393491546017e+00  2.3697302155649864e+00  7.0347143802403114e+00  6.4219159978440610e+00  7.2607919412789590e-01  9.4765514745572812e+00  2.3848428845300988e+00  1.8717765780446916e+00  7.3436828036659119e+00  7.6561889778686893e+00  6.2769127539895289e+00  9.0624736237166381e+00  8.5642410698791842e+00  9.3747366259257670e-01  1.4356798108757911e+00  8.5415815893236751e+00  1.0790630892535382e+00  5.4019547109428412e-01  1.4538177956930147e+00  7.2475536131977538e+00  4.2466555215951923e-01  5.8029677659081347e-01  1.0613931184177854e+00  1.3913306560422234e+00  9.4998053696910159e+00  5.0016620555608149e-01  8.1951213352870589e+00  8.2556304161131226e+00  8.7189654274664419e-01  3.5031063887582032e+00  2.4351138685419449e+00  1.6371465114738202e+00  1.7767491253357020e+00  7.9682475158605932e+00  5.9074035432379741e+00  5.9927202161614135e+00  4.5014341341379893e+00  7.2716225374865537e+00  2.3794781587505791e+00  7.7683416105335725e+00  3.5365260159901590e-01  3.0225334744804702e+00  8.8942482931276832e+00  1.9256776009719643e+00  7.5806196069880727e+00  7.4633827990805806e+00  3.2237616832201481e+00  6.3954395872757308e+00  5.3558845432187496e+00  1.7082797860452454e+00  5.4704584183992075e+00  8.8860704359385103e+00  1.5305299980019706e+00  5.5977997946668356e+00  8.2651030082169488e+00  3.5018859114786465e+00  2.6898970844458518e+00  3.4326649684743515e-01  4.1853389309208806e+00  4.5347499551385031e+00  3.9181477200824211e+00  2.8124298635181777e+00  1.0206797633917593e+00  5.0984781058734718e+00  7.6822841835003404e+00  6.9815730912085785e+00  1.7191889867335604e+00  9.6726097399112074e+00  5.9541807880889506e+00  5.3124096498170568e+00  5.4899366107733840e+00  5.9374130222554715e+00  4.2749366733968737e+00  4.3906201794277544e-01  8.3760518214477671e+00  3.2942758289979845e-01  6.5624198913197302e+00  4.6908419705983952e+00  9.6821500463336641e+00  3.0367411717168196e+00  2.2735943285177429e+00  2.2735942330940953e+00  9.6777282408015850e+00  6.5624198636340854e+00  4.5853388293219979e+00  5.3253999717241021e+00  4.6727838502325270e+00  9.6722377162092705e+00  6.1792276995319835e+00  5.6552644882593697e+00  2.2824840294846167e+00  9.6850930759418539e+00  8.3910982878175968e+00  3.1779075205860843e+00  8.4609406258535920e+00  5.0701618836284288e+00  5.9130121349845428e+00  1.0123054868776566e+00  8.6713218705652029e+00  5.2939814868804378e+00  4.3646236573943389e+00  6.7314251317155334e+00  3.7414744420925077e+00  3.6977349885812356e+00  3.2819652761247955e+00  2.8951142483234551e+00  3.6523037157830394e+00  3.0301327559919629e+00  3.8222393933341734e+00  </DataArray> 
</PointData> 
</Piece>
</UnstructuredGrid>
</VTKFile>