<?xml version="1.0"?>
<VTKFile type="UnstructuredGrid"  version="0.1"  >
<UnstructuredGrid>
<Piece  NumberOfPoints="18071" NumberOfCells="35544">
<Points>
<DataArray  type="Float64"  NumberOfComponents="3"  format="ascii">0.9486832980505138 0 0  0.9484724340806782 0.02000104469955538 0  0.9478399359086995 0.03999319812908447 0  0.9467860847054931 0.0599675729710886 0  0.9453113489503684 0.07991528981136745 0  0.9434163842227721 0.09982748108627622 0  0.9411020329108563 0.119695295024715 0  0.938369323837003 0.1395098995830973 0  0.9352194718004709 0.1592624863715497 0  0.931653877037369 0.1789442745695953 0  0.9276741245981944 0.1985465148295827 0  0.9232819836432135 0.2180604931661231 0  0.9184794066559997 0.2374775348298079 0  0.9132685285754754 0.2567890081634844 0  0.9076516658468453 0.2759863284393749 0  0.9016313153918442 0.2950609616753339 0  0.8952101534987531 0.3140044284285474 0  0.8883910346326832 0.3328083075649862 0  0.8811769901666499 0.3514642400029395 0  0.873571227034005 0.3699639324289635 0  0.8655771263028276 0.3882991609845931 0  0.8571982416729006 0.4064617749221782 0  0.8484382978959503 0.4244437002282196 0  0.8393011891198424 0.4422369432125932 0  0.829790977157478 0.459833594062067 0  0.8199118896811526 0.477225830356532 0  0.8096683183431869 0.4944059205463824 0  0.7990648168236594 0.5113662273895018 0  0.7881060988061126 0.5280992113463244 0  0.7767970358821309 0.5445974339314641 0  0.7651426553857218 0.5608535610204205 0  0.753148138158463 0.5768603661098937 0  0.7408188162464108 0.5926107335302548 0  0.7281601705297891 0.6080976616087488 0  0.7151778282865192 0.6233142657820195 0  0.7018775606906669 0.6382537816565753 0  0.6882652802469232 0.652909568015835 0  0.6743470381622587 0.6672751097724156 0  0.6601290216559174 0.6813440208643511 0  0.6456175512089487 0.6951100470939552 0  0.6308190777544996 0.7085670689080622 0  0.6157401798101144 0.7217091041184169 0  0.6003875605533189 0.734530310560997 0  0.584768044841788 0.7470249886930909 0  0.5688885761794213 0.7591875841269735 0  0.5527562136296766 0.7710126900990562 0  0.5363781286775311 0.7824950498734097 0  0.5197616020414676 0.7936295590785962 0  0.5029140204369025 0.8044112679767674 0  0.4858428732924924 0.8148353836640227 0  0.4685557494207815 0.8248972722010478 0  0.4510603336446699 0.8345924606730875 0  0.4333644033811983 0.8439166391783361 0  0.4154758251841748 0.8528656627438631 0  0.3974025512471733 0.8614355531682203 0  0.379152615868464 0.8696225007899122 0  0.3607341318794444 0.8774228661809444 0  0.342155287038158 0.8848331817646961 0  0.3234243403895067 0.8918501533573969 0  0.3045496185937731 0.898470661632525 0  0.2855395122250832 0.904691763507473 0  0.2664024720414594 0.9105106934518669 0  0.2471470052281184 0.915924864716955 0  0.2277816716156831 0.9209318704855235 0  0.2083150798749952 0.925529484941822 0  0.1887558836902123 0.9297156642610294 0  0.1691127779118977 0.9334885475178156 0  0.1493944946918097 0.9368464575135985 0  0.1296097996011066 0.9397879015221259 0  0.1097674877336993 0.9423115719530522 0  0.08987637979647611 0.9444163469332154 0  0.06994531818814397 0.9461012908053551 0  0.04998316306842656 0.9473656545440494 0  0.02999878841936526 0.9482088760886865 0  0.01000107810047723 0.9486305805933245 0  -0.01000107810047732 0.9486305805933245 0  -0.02999878841936514 0.9482088760886865 0  -0.04998316306842644 0.9473656545440494 0  -0.06994531818814406 0.9461012908053551 0  -0.08987637979647599 0.9444163469332155 0  -0.1097674877336992 0.9423115719530522 0  -0.1296097996011065 0.9397879015221259 0  -0.1493944946918096 0.9368464575135985 0  -0.1691127779118979 0.9334885475178156 0  -0.1887558836902122 0.9297156642610294 0  -0.2083150798749951 0.925529484941822 0  -0.227781671615683 0.9209318704855235 0  -0.247147005228118 0.9159248647169551 0  -0.2664024720414591 0.9105106934518669 0  -0.2855395122250831 0.904691763507473 0  -0.3045496185937729 0.8984706616325251 0  -0.3234243403895066 0.8918501533573969 0  -0.3421552870381577 0.8848331817646962 0  -0.3607341318794441 0.8774228661809446 0  -0.3791526158684641 0.8696225007899122 0  -0.3974025512471734 0.8614355531682203 0  -0.4154758251841746 0.8528656627438632 0  -0.4333644033811984 0.8439166391783361 0  -0.4510603336446696 0.8345924606730876 0  -0.4685557494207815 0.8248972722010479 0  -0.4858428732924923 0.8148353836640227 0  -0.5029140204369026 0.8044112679767673 0  -0.5197616020414676 0.7936295590785962 0  -0.536378128677531 0.7824950498734098 0  -0.5527562136296768 0.7710126900990562 0  -0.5688885761794211 0.7591875841269737 0  -0.5847680448417879 0.747024988693091 0  -0.6003875605533187 0.7345303105609973 0  -0.6157401798101142 0.721709104118417 0  -0.6308190777544995 0.7085670689080623 0  -0.6456175512089487 0.6951100470939551 0  -0.6601290216559171 0.6813440208643513 0  -0.6743470381622587 0.6672751097724156 0  -0.688265280246923 0.6529095680158352 0  -0.7018775606906668 0.6382537816565753 0  -0.7151778282865192 0.6233142657820195 0  -0.7281601705297891 0.6080976616087488 0  -0.7408188162464107 0.592610733530255 0  -0.753148138158463 0.5768603661098938 0  -0.7651426553857216 0.5608535610204208 0  -0.7767970358821308 0.5445974339314642 0  -0.7881060988061125 0.5280992113463245 0  -0.7990648168236594 0.5113662273895018 0  -0.8096683183431868 0.4944059205463825 0  -0.8199118896811526 0.477225830356532 0  -0.8297909771574777 0.4598335940620675 0  -0.8393011891198424 0.4422369432125932 0  -0.8484382978959502 0.4244437002282198 0  -0.8571982416729006 0.4064617749221782 0  -0.8655771263028273 0.3882991609845933 0  -0.873571227034005 0.3699639324289636 0  -0.8811769901666499 0.3514642400029395 0  -0.8883910346326833 0.332808307564986 0  -0.8952101534987531 0.3140044284285475 0  -0.9016313153918442 0.295060961675334 0  -0.9076516658468452 0.2759863284393752 0  -0.9132685285754755 0.2567890081634842 0  -0.9184794066559997 0.237477534829808 0  -0.9232819836432135 0.218060493166123 0  -0.9276741245981943 0.1985465148295829 0  -0.931653877037369 0.1789442745695954 0  -0.9352194718004709 0.15926248637155 0  -0.938369323837003 0.1395098995830971 0  -0.9411020329108563 0.1196952950247151 0  -0.9434163842227721 0.09982748108627618 0  -0.9453113489503684 0.07991528981136768 0  -0.9467860847054931 0.05996757297108869 0  -0.9478399359086995 0.03999319812908442 0  -0.9484724340806782 0.02000104469955522 0  -0.9486832980505138 1.161801964362116e-16 0  -0.9484724340806782 -0.02000104469955541 0  -0.9478399359086995 -0.0399931981290842 0  -0.9467860847054931 -0.05996757297108847 0  -0.9453113489503684 -0.07991528981136745 0  -0.9434163842227721 -0.09982748108627594 0  -0.9411020329108563 -0.1196952950247148 0  -0.938369323837003 -0.1395098995830973 0  -0.935219471800471 -0.1592624863715494 0  -0.9316538770373691 -0.1789442745695952 0  -0.9276741245981944 -0.1985465148295827 0  -0.9232819836432136 -0.2180604931661228 0  -0.9184794066559998 -0.2374775348298077 0  -0.9132685285754755 -0.256789008163484 0  -0.9076516658468454 -0.2759863284393745 0  -0.9016313153918442 -0.2950609616753337 0  -0.8952101534987533 -0.3140044284285469 0  -0.8883910346326832 -0.3328083075649862 0  -0.8811769901666497 -0.3514642400029397 0  -0.8735712270340051 -0.3699639324289634 0  -0.8655771263028275 -0.3882991609845931 0  -0.8571982416729007 -0.406461774922178 0  -0.8484382978959503 -0.4244437002282196 0  -0.8393011891198425 -0.4422369432125929 0  -0.8297909771574781 -0.4598335940620669 0  -0.8199118896811529 -0.4772258303565314 0  -0.8096683183431871 -0.494405920546382 0  -0.7990648168236597 -0.5113662273895012 0  -0.7881060988061124 -0.5280992113463246 0  -0.7767970358821309 -0.544597433931464 0  -0.7651426553857217 -0.5608535610204206 0  -0.7531481381584632 -0.5768603661098936 0  -0.7408188162464108 -0.5926107335302547 0  -0.7281601705297893 -0.6080976616087486 0  -0.7151778282865193 -0.6233142657820193 0  -0.7018775606906672 -0.638253781656575 0  -0.6882652802469235 -0.6529095680158347 0  -0.674347038162259 -0.6672751097724151 0  -0.660129021655917 -0.6813440208643514 0  -0.6456175512089486 -0.6951100470939552 0  -0.6308190777544994 -0.7085670689080624 0  -0.6157401798101141 -0.7217091041184172 0  -0.6003875605533191 -0.7345303105609969 0  -0.5847680448417881 -0.7470249886930909 0  -0.5688885761794213 -0.7591875841269736 0  -0.5527562136296765 -0.7710126900990563 0  -0.5363781286775317 -0.7824950498734093 0  -0.519761602041468 -0.7936295590785959 0  -0.5029140204369028 -0.8044112679767672 0  -0.4858428732924925 -0.8148353836640226 0  -0.4685557494207817 -0.8248972722010478 0  -0.4510603336446699 -0.8345924606730875 0  -0.4333644033811982 -0.8439166391783361 0  -0.4154758251841745 -0.8528656627438633 0  -0.3974025512471736 -0.8614355531682203 0  -0.3791526158684643 -0.8696225007899121 0  -0.3607341318794445 -0.8774228661809444 0  -0.342155287038158 -0.8848331817646962 0  -0.3234243403895075 -0.8918501533573966 0  -0.3045496185937727 -0.8984706616325251 0  -0.2855395122250827 -0.9046917635074732 0  -0.2664024720414597 -0.9105106934518667 0  -0.2471470052281185 -0.915924864716955 0  -0.2277816716156832 -0.9209318704855235 0  -0.2083150798749951 -0.925529484941822 0  -0.1887558836902128 -0.9297156642610293 0  -0.1691127779118983 -0.9334885475178155 0  -0.14939449469181 -0.9368464575135985 0  -0.1296097996011069 -0.9397879015221258 0  -0.1097674877336994 -0.942311571953052 0  -0.08987637979647602 -0.9444163469332154 0  -0.06994531818814387 -0.9461012908053551 0  -0.04998316306842625 -0.9473656545440494 0  -0.02999878841936558 -0.9482088760886865 0  -0.01000107810047755 -0.9486305805933245 0  0.0100010781004772 -0.9486305805933245 0  0.02999878841936524 -0.9482088760886865 0  0.04998316306842591 -0.9473656545440494 0  0.06994531818814352 -0.9461012908053552 0  0.08987637979647567 -0.9444163469332155 0  0.1097674877336991 -0.9423115719530522 0  0.1296097996011066 -0.9397879015221259 0  0.1493944946918097 -0.9368464575135985 0  0.1691127779118979 -0.9334885475178156 0  0.1887558836902125 -0.929715
[...]
<PointData  Scalars="f_29-2"> 
<DataArray  type="Float64"  Name="f_29-2"  format="ascii">0.0000000000000000e+00  0.0000000000000000e+00  0.0000000000000000e+00  0.0000000000000000e+00  0.0000000000000000e+00  0.0000000000000000e+00  0.0000000000000000e+00  0.0000000000000000e+00  0.0000000000000000e+00  0.0000000000000000e+00  0.0000000000000000e+00  0.0000000000000000e+00  0.0000000000000000e+00  0.0000000000000000e+00  0.0000000000000000e+00  0.0000000000000000e+00  0.0000000000000000e+00  0.0000000000000000e+00  0.0000000000000000e+00  0.0000000000000000e+00  0.0000000000000000e+00  0.0000000000000000e+00  0.0000000000000000e+00  0.0000000000000000e+00  0.0000000000000000e+00  0.0000000000000000e+00  0.0000000000000000e+00  0.0000000000000000e+00  0.0000000000000000e+00  0.0000000000000000e+00  0.0000000000000000e+00  0.0000000000000000e+00  0.0000000000000000e+00  0.0000000000000000e+00  0.0000000000000000e+00  0.0000000000000000e+00  0.0000000000000000e+00  0.0000000000000000e+00  0.0000000000000000e+00  0.0000000000000000e+00  0.0000000000000000e+00  0.0000000000000000e+00  0.0000000000000000e+00  0.0000000000000000e+00  0.0000000000000000e+00  0.0000000000000000e+00  0.0000000000000000e+00  0.0000000000000000e+00  0.0000000000000000e+00  0.0000000000000000e+00  0.0000000000000000e+00  0.0000000000000000e+00  0.0000000000000000e+00  0.0000000000000000e+00  0.0000000000000000e+00  0.0000000000000000e+00  0.0000000000000000e+00  0.0000000000000000e+00  0.0000000000000000e+00  0.0000000000000000e+00  0.0000000000000000e+00  0.0000000000000000e+00  0.0000000000000000e+00  0.0000000000000000e+00  0.0000000000000000e+00  0.0000000000000000e+00  0.0000000000000000e+00  0.0000000000000000e+00  0.0000000000000000e+00  0.0000000000000000e+00  0.0000000000000000e+00  0.0000000000000000e+00  0.0000000000000000e+00  0.0000000000000000e+00  0.0000000000000000e+00  0.0000000000000000e+00  0.0000000000000000e+00  0.0000000000000000e+00  0.0000000000000000e+00  0.0000000000000000e+00  0.0000000000000000e+00  0.0000000000000000e+00  0.0000000000000000e+00  0.0000000000000000e+00  0.0000000000000000e+00  0.0000000000000000e+00  0.0000000000000000e+00  0.0000000000000000e+00  0.0000000000000000e+00  0.0000000000000000e+00  0.0000000000000000e+00  0.0000000000000000e+00  0.0000000000000000e+00  0.0000000000000000e+00  0.0000000000000000e+00  0.0000000000000000e+00  0.0000000000000000e+00  0.0000000000000000e+00  0.0000000000000000e+00  0.0000000000000000e+00  0.0000000000000000e+00  0.0000000000000000e+00  0.0000000000000000e+00  0.0000000000000000e+00  0.0000000000000000e+00  0.0000000000000000e+00  0.0000000000000000e+00  0.0000000000000000e+00  0.0000000000000000e+00  0.0000000000000000e+00  0.0000000000000000e+00  0.0000000000000000e+00  0.0000000000000000e+00  0.0000000000000000e+00  0.0000000000000000e+00  0.0000000000000000e+00  0.0000000000000000e+00  0.0000000000000000e+00  0.0000000000000000e+00  0.0000000000000000e+00  0.0000000000000000e+00  0.0000000000000000e+00  0.0000000000000000e+00  0.0000000000000000e+00  0.0000000000000000e+00  0.0000000000000000e+00  0.0000000000000000e+00  0.0000000000000000e+00  0.0000000000000000e+00  0.0000000000000000e+00  0.0000000000000000e+00  0.0000000000000000e+00  0.0000000000000000e+00  0.0000000000000000e+00  0.0000000000000000e+00  0.0000000000000000e+00  0.0000000000000000e+00  0.0000000000000000e+00  0.0000000000000000e+00  0.0000000000000000e+00  0.0000000000000000e+00  0.0000000000000000e+00  0.0000000000000000e+00  0.0000000000000000e+00  0.0000000000000000e+00  0.0000000000000000e+00  0.0000000000000000e+00  0.0000000000000000e+00  0.0000000000000000e+00  0.0000000000000000e+00  0.0000000000000000e+00  0.0000000000000000e+00  0.0000000000000000e+00  0.0000000000000000e+00  0.0000000000000000e+00  0.0000000000000000e+00  0.0000000000000000e+00  0.0000000000000000e+00  0.0000000000000000e+00  0.0000000000000000e+00  0.0000000000000000e+00  0.0000000000000000e+00  0.0000000000000000e+00  0.0000000000000000e+00  0.0000000000000000e+00  0.0000000000000000e+00  0.0000000000000000e+00  0.0000000000000000e+00  0.0000000000000000e+00  0.0000000000000000e+00  0.0000000000000000e+00  0.0000000000000000e+00  0.0000000000000000e+00  0.0000000000000000e+00  0.0000000000000000e+00  0.0000000000000000e+00  0.0000000000000000e+00  0.0000000000000000e+00  0.0000000000000000e+00  0.0000000000000000e+00  0.0000000000000000e+00  0.0000000000000000e+00  0.0000000000000000e+00  0.0000000000000000e+00  0.0000000000000000e+00  0.0000000000000000e+00  0.0000000000000000e+00  0.0000000000000000e+00  0.0000000000000000e+00  0.0000000000000000e+00  0.0000000000000000e+00  0.0000000000000000e+00  0.0000000000000000e+00  0.0000000000000000e+00  0.0000000000000000e+00  0.0000000000000000e+00  0.0000000000000000e+00  0.0000000000000000e+00  0.0000000000000000e+00  0.0000000000000000e+00  0.0000000000000000e+00  0.0000000000000000e+00  0.0000000000000000e+00  0.0000000000000000e+00  0.0000000000000000e+00  0.0000000000000000e+00  0.0000000000000000e+00  0.0000000000000000e+00  0.0000000000000000e+00  0.0000000000000000e+00  0.0000000000000000e+00  0.0000000000000000e+00  0.0000000000000000e+00  0.0000000000000000e+00  0.0000000000000000e+00  0.0000000000000000e+00  0.0000000000000000e+00  0.0000000000000000e+00  0.0000000000000000e+00  0.0000000000000000e+00  0.0000000000000000e+00  0.0000000000000000e+00  0.0000000000000000e+00  0.0000000000000000e+00  0.0000000000000000e+00  0.0000000000000000e+00  0.0000000000000000e+00  0.0000000000000000e+00  0.0000000000000000e+00  0.0000000000000000e+00  0.0000000000000000e+00  0.0000000000000000e+00  0.0000000000000000e+00  0.0000000000000000e+00  0.0000000000000000e+00  0.0000000000000000e+00  0.0000000000000000e+00  0.0000000000000000e+00  0.0000000000000000e+00  0.0000000000000000e+00  0.0000000000000000e+00  0.0000000000000000e+00  0.0000000000000000e+00  0.0000000000000000e+00  0.0000000000000000e+00  0.0000000000000000e+00  0.0000000000000000e+00  0.0000000000000000e+00  0.0000000000000000e+00  0.0000000000000000e+00  0.0000000000000000e+00  0.0000000000000000e+00  0.0000000000000000e+00  0.0000000000000000e+00  0.0000000000000000e+00  0.0000000000000000e+00  0.0000000000000000e+00  0.0000000000000000e+00  0.0000000000000000e+00  0.0000000000000000e+00  0.0000000000000000e+00  0.0000000000000000e+00  0.0000000000000000e+00  0.0000000000000000e+00  0.0000000000000000e+00  0.0000000000000000e+00  0.0000000000000000e+00  0.0000000000000000e+00  0.0000000000000000e+00  0.0000000000000000e+00  0.0000000000000000e+00  0.0000000000000000e+00  0.0000000000000000e+00  0.0000000000000000e+00  0.0000000000000000e+00  0.0000000000000000e+00  0.0000000000000000e+00  0.0000000000000000e+00  0.0000000000000000e+00  0.0000000000000000e+00  0.0000000000000000e+00  0.0000000000000000e+00  0.0000000000000000e+00  0.0000000000000000e+00  0.0000000000000000e+00  0.0000000000000000e+00  0.0000000000000000e+00  0.0000000000000000e+00  0.0000000000000000e+00  0.0000000000000000e+00  0.0000000000000000e+00  0.0000000000000000e+00  0.0000000000000000e+00  0.0000000000000000e+00  0.0000000000000000e+00  0.0000000000000000e+00  0.0000000000000000e+00  0.0000000000000000e+00  1.2482806631420245e+00  9.3635536000411368e-01  9.3628498019277284e-01  9.3630417790960541e-01  9.3633171632839352e-01  9.1535772829159534e-01  8.8159098933528002e-01  7.5037759745013799e-01  7.5030479692715091e-01  6.8695188123160755e-01  6.8381886702163519e-01  6.6326569283363812e-01  6.5473677978860434e-01  1.1302270526502018e+00  1.1302206864578925e+00  1.1428177088815243e+00  5.8228488174232984e-01  5.8224662923512760e-01  5.8644505892170484e-01  5.8225881094927745e-01  1.1441147714233080e+00  1.1228631079963589e+00  5.5871360249090984e-01  5.5971701638167382e-01  1.0864654871337993e+00  5.4697314969678534e-01  5.2946141618359766e-01  5.7173181904993076e-01  5.8488985377416924e-01  5.2711555240418895e-01  9.4321765215345954e-01  6.6242177636608446e-01  4.4343391907849533e-01  4.4343870653965256e-01  4.4727667946067934e-01  4.4344287791152032e-01  9.5451732302644487e-01  8.6061896353112854e-01  8.6053540231599990e-01  9.5862894404473509e-01  8.6655079157317916e-01  1.1989316378153791e+00  1.2035724265769561e+00  9.3681868241083233e-01  4.1133567269510601e-01  4.0214750359713880e-01  4.0988924088301382e-01  4.0311773776045851e-01  6.7883835267633341e-01  3.9987588210341429e-01  4.0022286119676381e-01  3.8068440440114193e-01  3.8932550882819883e-01  8.7975563642582155e-01  8.0543143443234821e-01  9.1072316864323521e-01  3.7906415710389951e-01  3.7869761080791897e-01  1.1177372243716641e+00  9.7294647243643695e-01  1.2153220908073483e+00  1.2096275170882902e+00  1.1941175406912397e+00  7.7654591678586460e-01  1.0973237484585798e+00  3.8946046067304890e-01  1.0442496699994523e+00  1.0898658612055836e+00  3.7548797663746714e-01  3.5747316227558662e-01  7.5133802648403125e-01  8.4240502558297792e-01  3.5012402313516183e-01  1.0897361140366462e+00  1.2185181843359620e+00  1.0398802749909921e+00  1.0290203919304088e+00  1.0610988747720216e+00  1.0344211699833952e+00  7.8517641157086393e-01  3.3430142710308702e-01  3.3123718099198429e-01  3.3116505957265163e-01  6.9101170482367458e-01  3.3188601594305833e-01  3.5369483226016013e-01  8.1278432833149483e-01  7.1510399592789242e-01  3.2104338715698572e-01  1.0233672764417294e+00  7.7560271592622476e-01  8.1819562538713564e-01  6.7612079249103130e-01  3.1242046655332623e-01  9.6282503561516675e-01  6.7714657908846609e-01  6.7710833290072980e-01  3.1033405653690593e-01  1.0272121424588181e+00  3.1124221947394448e-01  7.3146706151694141e-01  3.1157927741360475e-01  6.4585929742843540e-01  7.7959966356474875e-01  7.5231183875592089e-01  1.1497901858970354e+00  1.0538419774571217e+00  1.0335540022208645e+00  2.9832018245877240e-01  6.1908274824014609e-01  2.8569568357519282e-01  1.0165589420987042e+00  7.2064383209577432e-01  8.0631959810513754e-01  3.1242850207531442e-01  6.2469291503722724e-01  1.2052521324990648e+00  8.1131089613949425e-01  5.4834671523528700e-01  6.3011538041300441e-01  3.2914445203604609e-01  3.0718389111609545e-01  5.4622836402943009e-01  9.0358733422074355e-01  1.1434272894454574e+00  7.4817553970696515e-01  5.9542154268311964e-01  1.1366549289789123e+00  2.8142198305709593e-01  5.9904668973708941e-01  3.7510347556434948e-01  2.9315623361905874e-01  5.6674192795594824e-01  9.1372618130015160e-01  2.8346063153153789e-01  2.8646338493369300e-01  2.7274692646766896e-01  2.7173343270414685e-01  7.0707888388675710e-01  1.2032096824075904e+00  4.5492699315159979e-01  9.9515358945281052e-01  5.8692294898216812e-01  1.1270112826219396e+00  4.9921396091364506e-01  1.2343427893430845e+00  5.5674686422226705e-01  1.0631782842838013e+00  2.4660189091348650e-01  3.7474788708731122e-01  2.7167491435530755e-01  8.8952886978278689e-01  8.0890027731817249e-01  1.0560634767159192e+00  8.2164050974877711e-01  2.4564968740942988e-01  2.4729424475651546e-01  2.4062660656059257e-01  2.4053960401985935e-01  5.0017485772444137e-01  7.7782997785702901e-01  1.1625029455768756e+00  5.1702002571267602e-01  4.8152188416217728e-01  6.8682518191997965e-01  8.2208625693550885e-01  5.7535388228762252e-01  8.6461184611550057e-01  9.8107664379254478e-01  1.2355732822351779e+00  1.1654399485335110e+00  5.2712311616230967e-01  8.1193873824225105e-01  2.5240845280096158e-01  1.1370021843407738e+00  1.0589292606651235e+00  9.4523665780930100e-01  5.2558621215747270e-01  1.0386569224159439e+00  5.5184237354399202e-01  8.6667856647087205e-01  9.4885500912021259e-01  5.1454600268659212e-01  8.3692490729776248e-01  4.8474553056349201e-01  5.5088194369242394e-01  1.1626072334478326e+00  1.2358236179106181e+00  1.1691216506109612e+00  2.2569014946008725e-01  2.3476104425806441e-01  9.1765910674409579e-01  2.2706795405735053e-01  2.4545022034247149e-01  9.0230560267561311e-01  8.1281930234823629e-01  7.3520590901971905e-01  8.1278067554101319e-01  7.2436009504087795e-01  9.4319662264909532e-01  7.3469530530733151e-01  5.6367027114852086e-01  2.2799562575949411e-01  2.1870824985923348e-01  2.1905002301614326e-01  4.9710257026571364e-01  8.4100980722216034e-01  4.9864649816462792e-01  4.7995775396663576e-01  2.2089154462061214e-01  2.1955863057136096e-01  9.6865919566274639e-01  1.0559815646097070e+00  2.1911528576393241e-01  1.0378657190924534e+00  1.0323304730464535e+00  1.1156635849761860e+00  2.1129811836093496e-01  9.3020232520978896e-01  2.1643027967603581e-01  1.2385081246444178e+00  6.6465940847532246e-01  2.3577101096385508e-01  2.2375788662998980e-01  2.1169547017932469e-01  1.0157567351272057e+00  2.0797088029596736e-01  2.7409093434559800e-01  4.2213774479188687e-01  2.3052224779140243e-01  2.0657195172945464e-01  5.5848238438870446e-01  4.5194253921081151e-01  4.6768784031073612e-01  4.4759103497873176e-01  2.1635015811994771e-01  6.0241013681581512e-01  2.2479832338896494e-01  4.1732515850590163e-01  2.0252389540129653e-01  1.1768253779799733e+00  1.1967299815901984e+00  4.6204619252646539e-01  4.8367360106296914e-01  7.9174470872163383e-01  1.1975095588497695e+00  5.7430047548718488e-01  9.7980928681541324e-01  9.3551465043098125e-01  1.1737479948476521e+00  5.1041699230680571e-01  7.5473106937253642e-01  6.9323706370424598e-01  5.2451373556803871e-01  2.0274386843760936e-01  2.1270528623159660e-01  2.0255521801603532e-01  2.5184209594559437e-01  9.3944570446291187e-01  9.4282068324728485e-01  7.2311186308368036e-01  2.0730934616986404e-01  7.1565571671974559e-01  1.0498180384548521e+00  2.0276867104920820e-01  8.2568832573222140e-01  1.0933977251954154e+00  1.0884158872330765e+00  1.2172404845781517e+00  1.1487411120034221e+00  7.1655717415615838e-01  1.2400623593302924e+00  2.0675327698623538e-01  1.1025918390514722e+00  8.6965319466343816e-01  9.5111141186877002e-01  7.9723763378737489e-01  7.4988738584367154e-01  7.6795749337136909e-01  2.0825961620608249e-01  1.1320723940413291e+00  5.3897266617902861e-01  9.6730169448434611e-01  6.6009426105416291e-01  8.2470796969285409e-01  1.0276173105069577e+00  1.0296644077254171e+00  1.1026939971146839e+00  2.4784321088503838e-01  1.0875582488814588e+00  6.0100744049924026e-01  1.1553545161491743e+00  7.1349583126575233e-01  6.5136753248681911e-01  1.2359369584583675e+00  1.0150284292758864e+00  4.8052315374544763e-01  6.8937470396536660e-01  5.4829018436734323e-01  1.1796879387775883e+00  4.2731938124099145e-01  8.8469979968956380e-01  5.8810527667717361e-01  1.8905457473091242e-01  1.8520317613384626e-01  1.2085530002930138e+00  6.4948040178479316e-01  1.9662642759520041e-01  4.3648574101116366e-01  4.7277811888241561e-01  1.9540959191635415e-01  4.3438064665555570e-01  1.8951591977615470e-01  1.9282422251376621e-01  1.0966170323167490e+00  1.8380454506302718e-01  6.4182028666466628e-01  7.0188319514075037e-01  7.1070204470221943e-01  5.3569863853822408e-01  1.8210512716621316e-01  1.0334319786516493e+00  1.0287086423460301e+00  1.1079059860286335e+00  9.3120765652702109e-01  3.9915187739919056e-01  9.5771869128665399e-01  7.5989801100854382e-01  8.5863435273040323e-01  1.2264698783998824e+00  1.7941201565015238e-01  1.7995699801743165e-01  4.5431796622883874e-01  1.0037950907693758e+00  1.0946822675897432e+00  6.8619196383602077e-01  1.0134289431462224e+00  9.9423308270915089e-01  6.0650601414709326e-01  8.4395514802271188e-01  9.5884105856774760e-01  7.1641074157116147e-01  8.2126037042824851e-01  6.9718194610735862e-01  8.5899000836863948e-01  3.8036745695439272e-01  4.6044052216582187e-01  9.0324327738310584e-01  6.6242700408190835e-01  1.1761268344363105e+00  1.8384799285566591e-01  8.7125556828958084e-01  8.7679003694043112e-01  4.9453539205963781e-01  4.2478122539417934e-01  3.9556264729173912e-01  3.8242912839248366e-01  1.1812665271765617e+00  3.7102172906280251e-01  8.5675412455280331e-01  9.8962582770720287e-01  5.9067147631056260e-01  6.3302725001020554e-01  1.1086833248168484e+00  3.8814741626303112e-01  3.8140411288425946e-01  6.6808063583627630e-01  6.4505775368096541e-01  8.8886220254311987e-01  3.8901356760274630e-01  1.2214384224446433e+00  7.5985698088347609e-01  1.0166067104487295e+00  1.1000955760660380e+00  1.6649995061618875e-01  3.8442094675200006e-01  8.4407782070578929e-01  1.6943096559534521e-01  8.3009640444817900e-01  2.6177241505109511e-01  1.6989485550815189e-01  1.6525395887017680e-01  1.6946102452753800e-01  7.6680384521684863e-01  1.2422859492828302e+00  8.4014583821354805e-01  1.7029609510015256e-01  1.6272819787777584e-01  9.5888250270142139e-01  6.1098314024203881e-01  1.1693898213510872e+00  6.8012813515580550e-01  6.3372331967002393e-01  1.6644513683479575e-01  6.8108259369308988e-01  9.4467862854305529e-01  1.0900267137399846e+00  1.6625357197641077e-01  4.0791452792354904e-01  6.3125789476633631e-01  5.6343731641305650e-01  4.3723498922797899e-01  3.6055413494283839e-01  1.7324917196655804e-01  3.7473479714246938e-01  4.1893083122235475e-01  4.4150384554947536e-01  3.6796659057911513e-01  9.8595376935946788e-01  3.6910005989502642e-01  1.1402774474921913e+00  7.1650422238801470e-01  7.6631321926613138e-01  5.6108992121314705e-01  5.1979244837515137e-01  2.1452346601879069e-01  9.9541463740738934e-01  6.9559196316418981e-01  4.2951699665384424e-01  3.9825770200485028e-01  6.0086973567708823e-01  1.2250106135536944e+00  7.0889774639030700e-01  4.3671129798089631e-01  5.9372111113103865e-01  1.0519039825123615e+00  1.6553173056473353e-01  1.5770059733957520e-01  7.7535520358233367e-01  8.4734572420429966e-01  7.9284501023207132e-01  1.6146339945349689e-01  1.0794868219792482e+00  1.1849144508202700e+00  7.8058717989778714e-01  5.5727118538069464e-01  3.7791143465919297e-01  1.1325747363173782e+00  1.1906207590753757e+00  5.3609613082829766e-01  9.2312758580185295e-01  3.3554255920092296e-01  1.6034702554038691e-01  8.2614424050426860e-01  1.5264888249998315e-01  1.1028265417823928e+00  6.7798923807505251e-01  9.8130678634738888e-01  1.0513291892612981e+00  9.7221236851696280e-01  1.0875414983629816e+00  7.8163605379890666e-01  1.5512656194320970e-01  1.5705289249964496e-01  1.6001661061935565e-01  4.5509856658789488e-01  3.8367447229262230e-01  7.2299943502216502e-01  5.0428925268543889e-01  3.5482487329609047e-01  1.5696318835279849e-01  1.1982997890967895e+00  5.0841348559578348e-01  5.6777085057199372e-01  1.1626746106700918e+00  4.5925460455095701e-01  9.1345571353471255e-01  1.0804700322216920e+00  1.4881529895984463e-01  9.9848002868826047e-01  4.6255860629717815e-01  1.1709645282518641e+00  1.2179928011944485e+00  3.3650930944806545e-01  3.5668423357306117e-01  1.6276306817205644e-01  9.5779628676155193e-01  1.4539135666724340e-01  8.2447908178016538e-01  1.0710702921298696e+00  9.8158336897132836e-01  8.8896906229218609e-01  6.3756281962332395e-01  3.2895407326218112e-01  5.8619967102901949e-01  1.5213392967828654e-01  6.3333435357010337e-01  7.4116101141851287e-01  8.6268777777668493e-01  8.7996900116517385e-01  7.8796115162583358e-01  5.1506657178981008e-01  5.9268927554751349e-01  6.5395050023471590e-01  3.2668588049896691e-01  1.1029868095859747e+00  1.4351811473664128e-01  1.1477560437958592e+00  8.8891151417381564e-01  7.2969428380328183e-01  7.7177269505518153e-01  8.2294450813545561e-01  8.8132925363356940e-01  6.4722577414968507e-01  1.0871815786420993e+00  1.1689606660477874e+00  5.3596856476609145e-01  1.4694472365610833e-01  9.7856230757094465e-01  3.3806813597347929e-01  8.9409170641939906e-01  1.1028828078234785e+00  5.3932249778687624e-01  1.1395077840662284e+00  1.1988293604886671e+00  6.5878054995670166e-01  1.0379693450611951e+00  6.1095901886380011e-01  6.5356029162259599e-01  5.2147060577070270e-01  7.2248613740197642e-01  6.4346006614937490e-01  9.3985187486026789e-01  1.4960061682792206e-01  9.9658503207050875e-01  3.6685633497382025e-01  6.0793627259824801e-01  8.5289077628509957e-01  1.4956208083768474e-01  3.4658196491342363e-01  1.1957924274190208e+00  4.3298118367057