<?xml version="1.0"?>
<VTKFile type="UnstructuredGrid"  version="0.1"  >
<UnstructuredGrid>
<Piece  NumberOfPoints="18071" NumberOfCells="35544">
<Points>
<DataArray  type="Float64"  NumberOfComponents="3"  format="ascii">0.9486832980505138 0 0  0.9484724340806782 0.02000104469955538 0  0.9478399359086995 0.03999319812908447 0  0.9467860847054931 0.0599675729710886 0  0.9453113489503684 0.07991528981136745 0  0.9434163842227721 0.09982748108627622 0  0.9411020329108563 0.119695295024715 0  0.938369323837003 0.1395098995830973 0  0.9352194718004709 0.1592624863715497 0  0.931653877037369 0.1789442745695953 0  0.9276741245981944 0.1985465148295827 0  0.9232819836432135 0.2180604931661231 0  0.9184794066559997 0.2374775348298079 0  0.9132685285754754 0.2567890081634844 0  0.9076516658468453 0.2759863284393749 0  0.9016313153918442 0.2950609616753339 0  0.8952101534987531 0.3140044284285474 0  0.8883910346326832 0.3328083075649862 0  0.8811769901666499 0.3514642400029395 0  0.873571227034005 0.3699639324289635 0  0.8655771263028276 0.3882991609845931 0  0.8571982416729006 0.4064617749221782 0  0.8484382978959503 0.4244437002282196 0  0.8393011891198424 0.4422369432125932 0  0.829790977157478 0.459833594062067 0  0.8199118896811526 0.477225830356532 0  0.8096683183431869 0.4944059205463824 0  0.7990648168236594 0.5113662273895018 0  0.7881060988061126 0.5280992113463244 0  0.7767970358821309 0.5445974339314641 0  0.7651426553857218 0.5608535610204205 0  0.753148138158463 0.5768603661098937 0  0.7408188162464108 0.5926107335302548 0  0.7281601705297891 0.6080976616087488 0  0.7151778282865192 0.6233142657820195 0  0.7018775606906669 0.6382537816565753 0  0.6882652802469232 0.652909568015835 0  0.6743470381622587 0.6672751097724156 0  0.6601290216559174 0.6813440208643511 0  0.6456175512089487 0.6951100470939552 0  0.6308190777544996 0.7085670689080622 0  0.6157401798101144 0.7217091041184169 0  0.6003875605533189 0.734530310560997 0  0.584768044841788 0.7470249886930909 0  0.5688885761794213 0.7591875841269735 0  0.5527562136296766 0.7710126900990562 0  0.5363781286775311 0.7824950498734097 0  0.5197616020414676 0.7936295590785962 0  0.5029140204369025 0.8044112679767674 0  0.4858428732924924 0.8148353836640227 0  0.4685557494207815 0.8248972722010478 0  0.4510603336446699 0.8345924606730875 0  0.4333644033811983 0.8439166391783361 0  0.4154758251841748 0.8528656627438631 0  0.3974025512471733 0.8614355531682203 0  0.379152615868464 0.8696225007899122 0  0.3607341318794444 0.8774228661809444 0  0.342155287038158 0.8848331817646961 0  0.3234243403895067 0.8918501533573969 0  0.3045496185937731 0.898470661632525 0  0.2855395122250832 0.904691763507473 0  0.2664024720414594 0.9105106934518669 0  0.2471470052281184 0.915924864716955 0  0.2277816716156831 0.9209318704855235 0  0.2083150798749952 0.925529484941822 0  0.1887558836902123 0.9297156642610294 0  0.1691127779118977 0.9334885475178156 0  0.1493944946918097 0.9368464575135985 0  0.1296097996011066 0.9397879015221259 0  0.1097674877336993 0.9423115719530522 0  0.08987637979647611 0.9444163469332154 0  0.06994531818814397 0.9461012908053551 0  0.04998316306842656 0.9473656545440494 0  0.02999878841936526 0.9482088760886865 0  0.01000107810047723 0.9486305805933245 0  -0.01000107810047732 0.9486305805933245 0  -0.02999878841936514 0.9482088760886865 0  -0.04998316306842644 0.9473656545440494 0  -0.06994531818814406 0.9461012908053551 0  -0.08987637979647599 0.9444163469332155 0  -0.1097674877336992 0.9423115719530522 0  -0.1296097996011065 0.9397879015221259 0  -0.1493944946918096 0.9368464575135985 0  -0.1691127779118979 0.9334885475178156 0  -0.1887558836902122 0.9297156642610294 0  -0.2083150798749951 0.925529484941822 0  -0.227781671615683 0.9209318704855235 0  -0.247147005228118 0.9159248647169551 0  -0.2664024720414591 0.9105106934518669 0  -0.2855395122250831 0.904691763507473 0  -0.3045496185937729 0.8984706616325251 0  -0.3234243403895066 0.8918501533573969 0  -0.3421552870381577 0.8848331817646962 0  -0.3607341318794441 0.8774228661809446 0  -0.3791526158684641 0.8696225007899122 0  -0.3974025512471734 0.8614355531682203 0  -0.4154758251841746 0.8528656627438632 0  -0.4333644033811984 0.8439166391783361 0  -0.4510603336446696 0.8345924606730876 0  -0.4685557494207815 0.8248972722010479 0  -0.4858428732924923 0.8148353836640227 0  -0.5029140204369026 0.8044112679767673 0  -0.5197616020414676 0.7936295590785962 0  -0.536378128677531 0.7824950498734098 0  -0.5527562136296768 0.7710126900990562 0  -0.5688885761794211 0.7591875841269737 0  -0.5847680448417879 0.747024988693091 0  -0.6003875605533187 0.7345303105609973 0  -0.6157401798101142 0.721709104118417 0  -0.6308190777544995 0.7085670689080623 0  -0.6456175512089487 0.6951100470939551 0  -0.6601290216559171 0.6813440208643513 0  -0.6743470381622587 0.6672751097724156 0  -0.688265280246923 0.6529095680158352 0  -0.7018775606906668 0.6382537816565753 0  -0.7151778282865192 0.6233142657820195 0  -0.7281601705297891 0.6080976616087488 0  -0.7408188162464107 0.592610733530255 0  -0.753148138158463 0.5768603661098938 0  -0.7651426553857216 0.5608535610204208 0  -0.7767970358821308 0.5445974339314642 0  -0.7881060988061125 0.5280992113463245 0  -0.7990648168236594 0.5113662273895018 0  -0.8096683183431868 0.4944059205463825 0  -0.8199118896811526 0.477225830356532 0  -0.8297909771574777 0.4598335940620675 0  -0.8393011891198424 0.4422369432125932 0  -0.8484382978959502 0.4244437002282198 0  -0.8571982416729006 0.4064617749221782 0  -0.8655771263028273 0.3882991609845933 0  -0.873571227034005 0.3699639324289636 0  -0.8811769901666499 0.3514642400029395 0  -0.8883910346326833 0.332808307564986 0  -0.8952101534987531 0.3140044284285475 0  -0.9016313153918442 0.295060961675334 0  -0.9076516658468452 0.2759863284393752 0  -0.9132685285754755 0.2567890081634842 0  -0.9184794066559997 0.237477534829808 0  -0.9232819836432135 0.218060493166123 0  -0.9276741245981943 0.1985465148295829 0  -0.931653877037369 0.1789442745695954 0  -0.9352194718004709 0.15926248637155 0  -0.938369323837003 0.1395098995830971 0  -0.9411020329108563 0.1196952950247151 0  -0.9434163842227721 0.09982748108627618 0  -0.9453113489503684 0.07991528981136768 0  -0.9467860847054931 0.05996757297108869 0  -0.9478399359086995 0.03999319812908442 0  -0.9484724340806782 0.02000104469955522 0  -0.9486832980505138 1.161801964362116e-16 0  -0.9484724340806782 -0.02000104469955541 0  -0.9478399359086995 -0.0399931981290842 0  -0.9467860847054931 -0.05996757297108847 0  -0.9453113489503684 -0.07991528981136745 0  -0.9434163842227721 -0.09982748108627594 0  -0.9411020329108563 -0.1196952950247148 0  -0.938369323837003 -0.1395098995830973 0  -0.935219471800471 -0.1592624863715494 0  -0.9316538770373691 -0.1789442745695952 0  -0.9276741245981944 -0.1985465148295827 0  -0.9232819836432136 -0.2180604931661228 0  -0.9184794066559998 -0.2374775348298077 0  -0.9132685285754755 -0.256789008163484 0  -0.9076516658468454 -0.2759863284393745 0  -0.9016313153918442 -0.2950609616753337 0  -0.8952101534987533 -0.3140044284285469 0  -0.8883910346326832 -0.3328083075649862 0  -0.8811769901666497 -0.3514642400029397 0  -0.8735712270340051 -0.3699639324289634 0  -0.8655771263028275 -0.3882991609845931 0  -0.8571982416729007 -0.406461774922178 0  -0.8484382978959503 -0.4244437002282196 0  -0.8393011891198425 -0.4422369432125929 0  -0.8297909771574781 -0.4598335940620669 0  -0.8199118896811529 -0.4772258303565314 0  -0.8096683183431871 -0.494405920546382 0  -0.7990648168236597 -0.5113662273895012 0  -0.7881060988061124 -0.5280992113463246 0  -0.7767970358821309 -0.544597433931464 0  -0.7651426553857217 -0.5608535610204206 0  -0.7531481381584632 -0.5768603661098936 0  -0.7408188162464108 -0.5926107335302547 0  -0.7281601705297893 -0.6080976616087486 0  -0.7151778282865193 -0.6233142657820193 0  -0.7018775606906672 -0.638253781656575 0  -0.6882652802469235 -0.6529095680158347 0  -0.674347038162259 -0.6672751097724151 0  -0.660129021655917 -0.6813440208643514 0  -0.6456175512089486 -0.6951100470939552 0  -0.6308190777544994 -0.7085670689080624 0  -0.6157401798101141 -0.7217091041184172 0  -0.6003875605533191 -0.7345303105609969 0  -0.5847680448417881 -0.7470249886930909 0  -0.5688885761794213 -0.7591875841269736 0  -0.5527562136296765 -0.7710126900990563 0  -0.5363781286775317 -0.7824950498734093 0  -0.519761602041468 -0.7936295590785959 0  -0.5029140204369028 -0.8044112679767672 0  -0.4858428732924925 -0.8148353836640226 0  -0.4685557494207817 -0.8248972722010478 0  -0.4510603336446699 -0.8345924606730875 0  -0.4333644033811982 -0.8439166391783361 0  -0.4154758251841745 -0.8528656627438633 0  -0.3974025512471736 -0.8614355531682203 0  -0.3791526158684643 -0.8696225007899121 0  -0.3607341318794445 -0.8774228661809444 0  -0.342155287038158 -0.8848331817646962 0  -0.3234243403895075 -0.8918501533573966 0  -0.3045496185937727 -0.8984706616325251 0  -0.2855395122250827 -0.9046917635074732 0  -0.2664024720414597 -0.9105106934518667 0  -0.2471470052281185 -0.915924864716955 0  -0.2277816716156832 -0.9209318704855235 0  -0.2083150798749951 -0.925529484941822 0  -0.1887558836902128 -0.9297156642610293 0  -0.1691127779118983 -0.9334885475178155 0  -0.14939449469181 -0.9368464575135985 0  -0.1296097996011069 -0.9397879015221258 0  -0.1097674877336994 -0.942311571953052 0  -0.08987637979647602 -0.9444163469332154 0  -0.06994531818814387 -0.9461012908053551 0  -0.04998316306842625 -0.9473656545440494 0  -0.02999878841936558 -0.9482088760886865 0  -0.01000107810047755 -0.9486305805933245 0  0.0100010781004772 -0.9486305805933245 0  0.02999878841936524 -0.9482088760886865 0  0.04998316306842591 -0.9473656545440494 0  0.06994531818814352 -0.9461012908053552 0  0.08987637979647567 -0.9444163469332155 0  0.1097674877336991 -0.9423115719530522 0  0.1296097996011066 -0.9397879015221259 0  0.1493944946918097 -0.9368464575135985 0  0.1691127779118979 -0.9334885475178156 0  0.1887558836902125 -0.929715
[...]
<PointData  Scalars="f_29-2"> 
<DataArray  type="Float64"  Name="f_29-2"  format="ascii">0.0000000000000000e+00  0.0000000000000000e+00  0.0000000000000000e+00  0.0000000000000000e+00  0.0000000000000000e+00  0.0000000000000000e+00  0.0000000000000000e+00  0.0000000000000000e+00  0.0000000000000000e+00  0.0000000000000000e+00  0.0000000000000000e+00  0.0000000000000000e+00  0.0000000000000000e+00  0.0000000000000000e+00  0.0000000000000000e+00  0.0000000000000000e+00  0.0000000000000000e+00  0.0000000000000000e+00  0.0000000000000000e+00  0.0000000000000000e+00  0.0000000000000000e+00  0.0000000000000000e+00  0.0000000000000000e+00  0.0000000000000000e+00  0.0000000000000000e+00  0.0000000000000000e+00  0.0000000000000000e+00  0.0000000000000000e+00  0.0000000000000000e+00  0.0000000000000000e+00  0.0000000000000000e+00  0.0000000000000000e+00  0.0000000000000000e+00  0.0000000000000000e+00  0.0000000000000000e+00  0.0000000000000000e+00  0.0000000000000000e+00  0.0000000000000000e+00  0.0000000000000000e+00  0.0000000000000000e+00  0.0000000000000000e+00  0.0000000000000000e+00  0.0000000000000000e+00  0.0000000000000000e+00  0.0000000000000000e+00  0.0000000000000000e+00  0.0000000000000000e+00  0.0000000000000000e+00  0.0000000000000000e+00  0.0000000000000000e+00  0.0000000000000000e+00  0.0000000000000000e+00  0.0000000000000000e+00  0.0000000000000000e+00  0.0000000000000000e+00  0.0000000000000000e+00  0.0000000000000000e+00  0.0000000000000000e+00  0.0000000000000000e+00  0.0000000000000000e+00  0.0000000000000000e+00  0.0000000000000000e+00  0.0000000000000000e+00  0.0000000000000000e+00  0.0000000000000000e+00  0.0000000000000000e+00  0.0000000000000000e+00  0.0000000000000000e+00  0.0000000000000000e+00  0.0000000000000000e+00  0.0000000000000000e+00  0.0000000000000000e+00  0.0000000000000000e+00  0.0000000000000000e+00  0.0000000000000000e+00  0.0000000000000000e+00  0.0000000000000000e+00  0.0000000000000000e+00  0.0000000000000000e+00  0.0000000000000000e+00  0.0000000000000000e+00  0.0000000000000000e+00  0.0000000000000000e+00  0.0000000000000000e+00  0.0000000000000000e+00  0.0000000000000000e+00  0.0000000000000000e+00  0.0000000000000000e+00  0.0000000000000000e+00  0.0000000000000000e+00  0.0000000000000000e+00  0.0000000000000000e+00  0.0000000000000000e+00  0.0000000000000000e+00  0.0000000000000000e+00  0.0000000000000000e+00  0.0000000000000000e+00  0.0000000000000000e+00  0.0000000000000000e+00  0.0000000000000000e+00  0.0000000000000000e+00  0.0000000000000000e+00  0.0000000000000000e+00  0.0000000000000000e+00  0.0000000000000000e+00  0.0000000000000000e+00  0.0000000000000000e+00  0.0000000000000000e+00  0.0000000000000000e+00  0.0000000000000000e+00  0.0000000000000000e+00  0.0000000000000000e+00  0.0000000000000000e+00  0.0000000000000000e+00  0.0000000000000000e+00  0.0000000000000000e+00  0.0000000000000000e+00  0.0000000000000000e+00  0.0000000000000000e+00  0.0000000000000000e+00  0.0000000000000000e+00  0.0000000000000000e+00  0.0000000000000000e+00  0.0000000000000000e+00  0.0000000000000000e+00  0.0000000000000000e+00  0.0000000000000000e+00  0.0000000000000000e+00  0.0000000000000000e+00  0.0000000000000000e+00  0.0000000000000000e+00  0.0000000000000000e+00  0.0000000000000000e+00  0.0000000000000000e+00  0.0000000000000000e+00  0.0000000000000000e+00  0.0000000000000000e+00  0.0000000000000000e+00  0.0000000000000000e+00  0.0000000000000000e+00  0.0000000000000000e+00  0.0000000000000000e+00  0.0000000000000000e+00  0.0000000000000000e+00  0.0000000000000000e+00  0.0000000000000000e+00  0.0000000000000000e+00  0.0000000000000000e+00  0.0000000000000000e+00  0.0000000000000000e+00  0.0000000000000000e+00  0.0000000000000000e+00  0.0000000000000000e+00  0.0000000000000000e+00  0.0000000000000000e+00  0.0000000000000000e+00  0.0000000000000000e+00  0.0000000000000000e+00  0.0000000000000000e+00  0.0000000000000000e+00  0.0000000000000000e+00  0.0000000000000000e+00  0.0000000000000000e+00  0.0000000000000000e+00  0.0000000000000000e+00  0.0000000000000000e+00  0.0000000000000000e+00  0.0000000000000000e+00  0.0000000000000000e+00  0.0000000000000000e+00  0.0000000000000000e+00  0.0000000000000000e+00  0.0000000000000000e+00  0.0000000000000000e+00  0.0000000000000000e+00  0.0000000000000000e+00  0.0000000000000000e+00  0.0000000000000000e+00  0.0000000000000000e+00  0.0000000000000000e+00  0.0000000000000000e+00  0.0000000000000000e+00  0.0000000000000000e+00  0.0000000000000000e+00  0.0000000000000000e+00  0.0000000000000000e+00  0.0000000000000000e+00  0.0000000000000000e+00  0.0000000000000000e+00  0.0000000000000000e+00  0.0000000000000000e+00  0.0000000000000000e+00  0.0000000000000000e+00  0.0000000000000000e+00  0.0000000000000000e+00  0.0000000000000000e+00  0.0000000000000000e+00  0.0000000000000000e+00  0.0000000000000000e+00  0.0000000000000000e+00  0.0000000000000000e+00  0.0000000000000000e+00  0.0000000000000000e+00  0.0000000000000000e+00  0.0000000000000000e+00  0.0000000000000000e+00  0.0000000000000000e+00  0.0000000000000000e+00  0.0000000000000000e+00  0.0000000000000000e+00  0.0000000000000000e+00  0.0000000000000000e+00  0.0000000000000000e+00  0.0000000000000000e+00  0.0000000000000000e+00  0.0000000000000000e+00  0.0000000000000000e+00  0.0000000000000000e+00  0.0000000000000000e+00  0.0000000000000000e+00  0.0000000000000000e+00  0.0000000000000000e+00  0.0000000000000000e+00  0.0000000000000000e+00  0.0000000000000000e+00  0.0000000000000000e+00  0.0000000000000000e+00  0.0000000000000000e+00  0.0000000000000000e+00  0.0000000000000000e+00  0.0000000000000000e+00  0.0000000000000000e+00  0.0000000000000000e+00  0.0000000000000000e+00  0.0000000000000000e+00  0.0000000000000000e+00  0.0000000000000000e+00  0.0000000000000000e+00  0.0000000000000000e+00  0.0000000000000000e+00  0.0000000000000000e+00  0.0000000000000000e+00  0.0000000000000000e+00  0.0000000000000000e+00  0.0000000000000000e+00  0.0000000000000000e+00  0.0000000000000000e+00  0.0000000000000000e+00  0.0000000000000000e+00  0.0000000000000000e+00  0.0000000000000000e+00  0.0000000000000000e+00  0.0000000000000000e+00  0.0000000000000000e+00  0.0000000000000000e+00  0.0000000000000000e+00  0.0000000000000000e+00  0.0000000000000000e+00  0.0000000000000000e+00  0.0000000000000000e+00  0.0000000000000000e+00  0.0000000000000000e+00  0.0000000000000000e+00  0.0000000000000000e+00  0.0000000000000000e+00  0.0000000000000000e+00  0.0000000000000000e+00  0.0000000000000000e+00  0.0000000000000000e+00  0.0000000000000000e+00  0.0000000000000000e+00  0.0000000000000000e+00  0.0000000000000000e+00  0.0000000000000000e+00  0.0000000000000000e+00  0.0000000000000000e+00  0.0000000000000000e+00  0.0000000000000000e+00  0.0000000000000000e+00  0.0000000000000000e+00  0.0000000000000000e+00  0.0000000000000000e+00  0.0000000000000000e+00  0.0000000000000000e+00  0.0000000000000000e+00  0.0000000000000000e+00  0.0000000000000000e+00  0.0000000000000000e+00  0.0000000000000000e+00  0.0000000000000000e+00  0.0000000000000000e+00  0.0000000000000000e+00  0.0000000000000000e+00  0.0000000000000000e+00  0.0000000000000000e+00  0.0000000000000000e+00  0.0000000000000000e+00  0.0000000000000000e+00  1.2475279643077686e+00  9.3585111125433584e-01  9.3578078414984900e-01  9.3579994377893305e-01  9.3582747939002497e-01  9.1486855804760292e-01  8.8112567834190803e-01  7.5000040301816728e-01  7.4992762345154718e-01  6.8661462972080756e-01  6.8348354224170726e-01  6.6294294575039825e-01  6.5441922616819137e-01  1.1295738602520369e+00  1.1295674981023518e+00  1.1421542307416350e+00  5.8201009552804550e-01  5.8197188643593922e-01  5.8616786013773181e-01  5.8198403964006973e-01  1.1434502308454884e+00  1.1222158992494984e+00  5.5845229651628236e-01  5.5945511989674024e-01  1.0858474505874527e+00  5.4671846375900379e-01  5.2921652572497957e-01  5.7146308138495605e-01  5.8461354222053774e-01  5.2687195427241074e-01  9.4270841775450676e-01  6.6209958265994917e-01  4.4323542786087805e-01  4.4324025033264136e-01  4.4707620249808883e-01  4.4324440220073186e-01  9.5399984875310240e-01  8.6016824473175379e-01  8.6008473099121230e-01  9.5810845873556216e-01  8.6609598673017363e-01  1.1982213739707956e+00  1.2028582261620264e+00  9.3631410055737818e-01  4.1115382918146559e-01  4.0197038974052690e-01  4.0970809220334115e-01  4.0294009800611869e-01  6.7850611020092311e-01  3.9969988975383686e-01  4.0004669378945185e-01  3.8051807229929313e-01  3.8915486801010529e-01  8.7929163921199016e-01  8.0501816324230568e-01  9.1023730269983805e-01  3.7889868836950436e-01  3.7853226880904151e-01  1.1170941581991385e+00  9.7241543238152917e-01  1.2145978671003199e+00  1.2089081600919664e+00  1.1934113535551099e+00  7.7615171359739121e-01  1.0966970781432670e+00  3.8928976093988071e-01  1.0436646860330068e+00  1.0892451246712529e+00  3.7532425742870512e-01  3.5731838194280791e-01  7.5096018910237217e-01  8.4196680925412715e-01  3.4997287523580667e-01  1.0891154843294542e+00  1.2177912244559297e+00  1.0392986537066622e+00  1.0284471238041857e+00  1.0605008009792292e+00  1.0338437741324311e+00  7.8477655277781588e-01  3.3415797891073484e-01  3.3109521153055188e-01  3.3102313860676991e-01  6.9067194949835897e-01  3.3174371522671009e-01  3.5354190673218838e-01  8.1236613575160044e-01  7.1474922227035920e-01  3.2090632711450690e-01  1.0227983286484232e+00  7.7520912403658415e-01  8.1777380221908746e-01  6.7579021155261931e-01  3.1228754530430219e-01  9.6230145347505458e-01  6.7681536325669589e-01  6.7677717588150799e-01  3.1020211623481692e-01  1.0266402701826947e+00  3.1110985649791029e-01  7.3110194735290945e-01  3.1144675633772900e-01  6.4554707259432276e-01  7.7920348775058790e-01  7.5193336030131230e-01  1.1491209739557022e+00  1.0532495643842923e+00  1.0329772661634589e+00  2.9819394260423387e-01  6.1878650693410830e-01  2.8557537864234633e-01  1.0159951811612691e+00  7.2028558172070734e-01  8.0590573946691724e-01  3.1229556303702632e-01  6.2439335025870357e-01  1.2045365041170573e+00  8.1089367751067587e-01  5.4809123786440872e-01  6.2981257573873151e-01  3.2900347958544812e-01  3.0705346376674159e-01  5.4597407386185581e-01  9.0310655110390980e-01  1.1427633113456346e+00  7.4779973105986342e-01  5.9513913417593944e-01  1.1359964975434846e+00  2.8130367823619234e-01  5.9876220189888429e-01  3.7493998287681829e-01  2.9303242480507008e-01  5.6647604690812770e-01  9.1323817490776193e-01  2.8334139333970548e-01  2.8634267796279761e-01  2.7263266386351359e-01  2.7161961293342796e-01  7.0672915192403463e-01  1.2024957886299221e+00  4.5472251039689154e-01  9.9460600586645287e-01  5.8664547592926974e-01  1.1263607049851356e+00  4.9898568622328704e-01  1.2336021985959793e+00  5.5648664611336740e-01  1.0625785812467277e+00  2.4649964110678274e-01  3.7458453220091359e-01  2.7156115151463089e-01  8.8905800229488863e-01  8.0848470133579109e-01  1.0554693223991882e+00  8.2121637424977756e-01  2.4554785844613833e-01  2.4719165481121008e-01  2.4052709108766865e-01  2.4044007994486885e-01  4.9994605458291147e-01  7.7743494507491606e-01  1.1618232378865236e+00  5.1678202231871306e-01  4.8130318128109095e-01  6.8648802187285896e-01  8.2166183591520325e-01  5.7508309379014333e-01  8.6415838541979961e-01  9.8053958131370744e-01  1.2348316271825013e+00  1.1647577954264146e+00  5.2687950924699811e-01  8.1152109754431578e-01  2.5230350442994076e-01  1.1363434699681152e+00  1.0583328905387233e+00  9.4472594958032641e-01  5.2534347248758040e-01  1.0380762587121435e+00  5.5158495779855576e-01  8.6622365913596089e-01  9.4834167191271268e-01  5.1430937445137204e-01  8.3649041131924928e-01  4.8452509742307620e-01  5.5062504628631304e-01  1.1619274316859318e+00  1.2350817456554370e+00  1.1684364321901786e+00  2.2559732454546755e-01  2.3466416801591367e-01  9.1716830179009479e-01  2.2697454050232807e-01  2.4534848300869794e-01  9.0182573290371459e-01  8.1240108933103095e-01  7.3483839921979410e-01  8.1236246120577249e-01  7.2399948043981111e-01  9.4268741471113926e-01  7.3432811789867192e-01  5.6340613032751974e-01  2.2790178096993080e-01  2.1861854688145227e-01  2.1896017009838833e-01  4.9687547521617004e-01  8.4057255233607497e-01  4.9841857552924501e-01  4.7973990579634401e-01  2.2080084664993366e-01  2.1946854821770484e-01  9.6813131757188808e-01  1.0553874806349914e+00  2.1902538575715219e-01  1.0372856768930860e+00  1.0317546782697782e+00  1.1150221891152379e+00  2.1121169460112152e-01  9.2970253143396586e-01  2.1634158980818199e-01  1.2377639271585485e+00  6.6433582344681441e-01  2.3567362453276539e-01  2.2366590391488023e-01  2.1160888430181071e-01  1.0151935883208019e+00  2.0788590313677094e-01  2.7397603888181254e-01  4.2195031747434025e-01  2.3042724489276920e-01  2.0648760858770523e-01  5.5822121196189289e-01  4.5173957880155463e-01  4.6747654097590929e-01  4.4739038957836819e-01  2.1626148497140862e-01  6.0212367152600932e-01  2.2470589323755441e-01  4.1714020722815187e-01  2.0244134213360321e-01  1.1761337327928731e+00  1.1960215842983011e+00  4.6183792031141319e-01  4.8345375816592689e-01  7.9134049690765895e-01  1.1968004992301242e+00  5.7403027340844759e-01  9.7927315178956920e-01  9.3501101478626292e-01  1.1730589146144017e+00  5.1018258001265204e-01  7.5435105574256334e-01  6.9289594443715818e-01  5.2427154533066289e-01  2.0266122683217089e-01  2.1261824741430949e-01  2.0247266665830491e-01  2.5173744983190682e-01  9.3893921459140728e-01  9.4231172639628591e-01  7.2275202418049111e-01  2.0722473999964561e-01  7.1530062214211509e-01  1.0492287470113679e+00  2.0268599458076234e-01  8.2526146910452869e-01  1.0927741813494078e+00  1.0877963076870352e+00  1.2165146227479300e+00  1.1480727693848707e+00  7.1620149752151430e-01  1.2393168126188627e+00  2.0666885542509683e-01  1.1019609593126611e+00  8.6919620620362592e-01  9.5059643592815024e-01  7.9682979360083517e-01  7.4951049678314630e-01  7.6756889352672020e-01  2.0817453904764205e-01  1.1314177009092534e+00  5.3872245747079883e-01  9.6677482816179938e-01  6.5977350604667218e-01  8.2428177918116274e-01  1.0270451165795469e+00  1.0290906668384878e+00  1.1020630352588299e+00  2.4774040639216927e-01  1.0869393424772928e+00  6.0072179457533093e-01  1.1546807200382418e+00  7.1314205786482976e-01  6.5105203143737223e-01  1.2351949903104502e+00  1.0144658408855127e+00  4.8030500659391406e-01  6.8903598247656850e-01  5.4803471595682707e-01  1.1789938941307714e+00  4.2712928754246343e-01  8.8423234667874784e-01  5.8782711367917151e-01  1.8897796603421921e-01  1.8512820282148845e-01  1.2078345607165879e+00  6.4916601034798627e-01  1.9654644931199872e-01  4.3629090336550969e-01  4.7256411630952017e-01  1.9533020344141958e-01  4.3418689632794494e-01  1.8943907636668053e-01  1.9274594450428750e-01  1.0959909329416315e+00  1.8373022107739795e-01  6.4151051057539032e-01  7.0153666795244696e-01  7.1035002767723254e-01  5.3545027684931967e-01  1.8203145245977237e-01  1.0328553358756272e+00  1.0281356184539705e+00  1.1072708280782657e+00  9.3070712933900746e-01  3.9897626607414749e-01  9.5719887034892392e-01  7.5951466779960097e-01  8.5818498898587703e-01  1.2257360844104244e+00  1.7933948702747643e-01  1.7988431436978800e-01  4.5411375700972212e-01  1.0032409967869724e+00  1.0940577101521203e+00  6.8585517180226441e-01  1.0128675725834404e+00  9.9368618489501326e-01  6.0621712947610062e-01  8.4351586326701822e-01  9.5832042117337257e-01  7.1605513440208968e-01  8.2083650827342625e-01  6.9683837603881282e-01  8.5854040444470536e-01  3.8020127935747933e-01  4.6023308104547178e-01  9.0276274766221476e-01  6.6210477092705389e-01  1.1754357739249972e+00  1.8377357216558252e-01  8.7079747136665886e-01  8.7632809999325756e-01  4.9430968636369615e-01  4.2459248880293810e-01  3.9538882045835766e-01  3.8226191868595855e-01  1.1805711623988502e+00  3.7086024228182068e-01  8.5630606896139894e-01  9.8908237742983030e-01  5.9039186109450958e-01  6.3272268239445961e-01  1.1080475567136117e+00  3.8797733789077177e-01  3.8123746771557354e-01  6.6775500059688764e-01  6.4474605575640132e-01  8.8839180927262906e-01  3.8884306735786311e-01  1.2207089575625401e+00  7.5947363149079039e-01  1.0160429302881668e+00  1.0994666974545702e+00  1.6643302948296218e-01  3.8425278826266906e-01  8.4363844581967740e-01  1.6936280664373277e-01  8.2966653213923069e-01  2.6166322585782475e-01  1.6982645517123754e-01  1.6518757720468280e-01  1.6939283805728725e-01  7.6641599037451347e-01  1.2415384708064334e+00  8.3970915821411363e-01  1.7022755507807630e-01  1.6266290693906482e-01  9.5836182371042300e-01  6.1069167553769366e-01  1.1687043840632407e+00  6.7979510452082403e-01  6.3341840991680587e-01  1.6637823586500450e-01  6.8074897060391770e-01  9.4416833271165457e-01  1.0894058511529323e+00  1.6618679790181720e-01  4.0773445434916589e-01  6.3095442358110865e-01  5.6317332035377399e-01  4.3703975574258419e-01  3.6039783816267990e-01  1.7317936411573889e-01  3.7457145692715743e-01  4.1874510677598853e-01  4.4130639055979415e-01  3.6780661976861589e-01  9.8541307588223603e-01  3.6893953223653136e-01  1.1396160531012671e+00  7.1614851571280613e-01  7.6592566970858433e-01  5.6082723511214660e-01  5.1955289585839104e-01  2.1443562481415407e-01  9.9486684780916634e-01  6.9524935540539146e-01  4.2932578629810070e-01  3.9808254338973603e-01  6.0058417301337741e-01  1.2242780773659609e+00  7.0854682572722805e-01  4.3651637772902807e-01  5.9343971967894382e-01  1.0513130646830648e+00  1.6546522796444044e-01  1.5763743769874664e-01  7.7496176198031164e-01  8.4690412655226932e-01  7.9244009902843182e-01  1.6139865290431862e-01  1.0788743167010457e+00  1.1842160215244797e+00  7.8019032028303836e-01  5.5701072031259258e-01  3.7774649012606071e-01  1.1319196313024080e+00  1.1899175264544977e+00  5.3584754166667936e-01  9.2263286743257644e-01  3.3539852458008412e-01  1.6028275483788021e-01  8.2571706217856256e-01  1.5258789537471404e-01  1.1021954668253335e+00  6.7765753563172182e-01  9.8076954642198488e-01  1.0507387241426640e+00  9.7168187591388733e-01  1.0869226206255658e+00  7.8123851971792480e-01  1.5506454283671961e-01  1.5699002257124131e-01  1.5995248208277404e-01  4.5489396002327070e-01  3.8350667988693982e-01  7.2263966318804029e-01  5.0405823783361314e-01  3.5467138443346946e-01  1.5690034288417706e-01  1.1975900633540091e+00  5.0818017981659080e-01  5.6750436047328268e-01  1.1619947599205098e+00  4.5904780524083744e-01  9.1296790970383745e-01  1.0798567390615643e+00  1.4875595276205347e-01  9.9792991913091922e-01  4.6235005496657799e-01  1.1702777773912771e+00  1.2172662921992632e+00  3.3636480720054107e-01  3.5652984838533003e-01  1.6269776096797867e-01  9.5727640926687341e-01  1.4533343703617807e-01  8.2405302912278777e-01  1.0704643999429040e+00  9.8104591315466805e-01  8.8849859273194465e-01  6.3725560561014127e-01  3.2881322576146105e-01  5.8592262685850405e-01  1.5207311620462724e-01  6.3302965656000898e-01  7.4078970593570559e-01  8.6223562666784515e-01  8.7950484909236715e-01  7.8755946849570024e-01  5.1482962083198691e-01  5.9240844289597305e-01  6.5363341836755451e-01  3.2654613263049870e-01  1.1023556047688905e+00  1.4346094914038277e-01  1.1470885069205918e+00  8.8844108657997256e-01  7.2933025400416163e-01  7.7138162293487855e-01  8.2251950735650847e-01  8.8086415170986598e-01  6.4691275147920291e-01  1.0865629725223305e+00  1.1682755829473925e+00  5.3572004503127568e-01  1.4688613708261353e-01  9.7802710983134422e-01  3.3792287461422621e-01  8.9361764435252133e-01  1.1022516924831478e+00  5.3907210926601346e-01  1.1388470173720775e+00  1.1981191815432586e+00  6.5846052470329053e-01  1.0373892056700731e+00  6.1066756150924972e-01  6.5324345643414627e-01  5.2123014031439729e-01  7.2212671639616532e-01  6.4314930292516204e-01  9.3934508396454064e-01  1.4954092649823578e-01  9.9603636266059603e-01  3.6669691166178697e-01  6.0764660720026442e-01  8.5244535916792119e-01  1.4950241094884245e-01  3.4643254221003456e-01  1.1950848258068352e+00  4.3278816012371