<?xml version="1.0"?>
<VTKFile type="UnstructuredGrid"  version="0.1"  >
<UnstructuredGrid>
<Piece  NumberOfPoints="3243" NumberOfCells="6301">
<Points>
<DataArray  type="Float64"  NumberOfComponents="3"  format="ascii">1 0 0  0.9987569212189223 0.04984588566069716 0  0.9950307753654014 0.09956784659581666 0  0.9888308262251285 0.1490422661761744 0  0.9801724878485438 0.1981461431993976 0  0.969077286229078 0.2467573976902936 0  0.9555728057861407 0.2947551744109042 0  0.9396926207859084 0.3420201433256687 0  0.9214762118704076 0.3884347962746947 0  0.9009688679024191 0.4338837391175581 0  0.8782215733702285 0.4782539786213182 0  0.8532908816321557 0.521435203379498 0  0.8262387743159949 0.5633200580636221 0  0.7971325072229225 0.6038044103254774 0  0.766044443118978 0.6427876096865393 0  0.7330518718298263 0.6801727377709194 0  0.6982368180860729 0.7158668492597184 0  0.6616858375968594 0.7497812029677342 0  0.6234898018587336 0.7818314824680298 0  0.58374367223479 0.8119380057158565 0  0.5425462638657594 0.8400259231507714 0  0.4999999999999999 0.8660254037844387 0  0.4562106573531631 0.8898718088114685 0  0.4112871031306117 0.9115058523116731 0  0.365341024366395 0.9308737486442042 0  0.3184866502516844 0.9479273461671317 0  0.2708404681430052 0.962624246950012 0  0.2225209339563144 0.9749279121818236 0  0.1736481776669304 0.984807753012208 0  0.1243437046474853 0.9922392066001721 0  0.07473009358642439 0.9972037971811801 0  0.02493069173807303 0.9996891820008162 0  -0.02493069173807291 0.9996891820008162 0  -0.07473009358642427 0.9972037971811801 0  -0.1243437046474852 0.9922392066001721 0  -0.1736481776669303 0.984807753012208 0  -0.2225209339563143 0.9749279121818236 0  -0.270840468143005 0.9626242469500121 0  -0.3184866502516843 0.9479273461671318 0  -0.3653410243663949 0.9308737486442044 0  -0.4112871031306114 0.9115058523116732 0  -0.4562106573531626 0.8898718088114688 0  -0.5000000000000002 0.8660254037844385 0  -0.5425462638657593 0.8400259231507715 0  -0.5837436722347896 0.8119380057158566 0  -0.6234898018587335 0.7818314824680299 0  -0.6616858375968592 0.7497812029677344 0  -0.6982368180860727 0.7158668492597186 0  -0.7330518718298263 0.6801727377709194 0  -0.7660444431189779 0.6427876096865395 0  -0.7971325072229225 0.6038044103254774 0  -0.8262387743159947 0.5633200580636223 0  -0.8532908816321556 0.5214352033794981 0  -0.8782215733702287 0.4782539786213181 0  -0.900968867902419 0.4338837391175582 0  -0.9214762118704077 0.3884347962746946 0  -0.9396926207859083 0.3420201433256689 0  -0.9555728057861406 0.2947551744109046 0  -0.9690772862290778 0.2467573976902938 0  -0.9801724878485438 0.1981461431993976 0  -0.9888308262251285 0.1490422661761747 0  -0.9950307753654014 0.09956784659581673 0  -0.9987569212189223 0.04984588566069748 0  -1 1.224646799147353e-16 0  -0.9987569212189223 -0.04984588566069723 0  -0.9950307753654014 -0.09956784659581648 0  -0.9888308262251285 -0.1490422661761745 0  -0.9801724878485439 -0.1981461431993974 0  -0.969077286229078 -0.2467573976902936 0  -0.9555728057861408 -0.2947551744109039 0  -0.9396926207859084 -0.3420201433256687 0  -0.9214762118704076 -0.3884347962746948 0  -0.9009688679024191 -0.433883739117558 0  -0.8782215733702288 -0.4782539786213179 0  -0.8532908816321557 -0.5214352033794979 0  -0.8262387743159949 -0.5633200580636221 0  -0.7971325072229226 -0.6038044103254772 0  -0.766044443118978 -0.6427876096865393 0  -0.7330518718298266 -0.6801727377709191 0  -0.6982368180860729 -0.7158668492597183 0  -0.6616858375968597 -0.749781202967734 0  -0.6234898018587337 -0.7818314824680297 0  -0.5837436722347905 -0.8119380057158559 0  -0.5425462638657592 -0.8400259231507715 0  -0.4999999999999996 -0.8660254037844388 0  -0.4562106573531632 -0.8898718088114684 0  -0.4112871031306116 -0.9115058523116731 0  -0.3653410243663957 -0.930873748644204 0  -0.318486650251685 -0.9479273461671316 0  -0.2708404681430046 -0.9626242469500123 0  -0.2225209339563146 -0.9749279121818236 0  -0.1736481776669303 -0.984807753012208 0  -0.1243437046474858 -0.992239206600172 0  -0.07473009358642473 -0.9972037971811801 0  -0.02493069173807316 -0.9996891820008162 0  0.02493069173807279 -0.9996891820008162 0  0.07473009358642436 -0.9972037971811801 0  0.1243437046474846 -0.9922392066001722 0  0.17364817766693 -0.9848077530122081 0  0.2225209339563142 -0.9749279121818236 0  0.2708404681430051 -0.962624246950012 0  0.3184866502516846 -0.9479273461671317 0  0.3653410243663945 -0.9308737486442045 0  0.4112871031306113 -0.9115058523116732 0  0.4562106573531629 -0.8898718088114687 0  0.5000000000000001 -0.8660254037844386 0  0.5425462638657597 -0.8400259231507713 0  0.5837436722347895 -0.8119380057158567 0  0.6234898018587334 -0.7818314824680299 0  0.6616858375968587 -0.7497812029677348 0  0.698236818086073 -0.7158668492597183 0  0.7330518718298266 -0.6801727377709191 0  0.7660444431189778 -0.6427876096865396 0  0.7971325072229224 -0.6038044103254775 0  0.8262387743159945 -0.5633200580636227 0  0.8532908816321558 -0.5214352033794979 0  0.8782215733702283 -0.4782539786213186 0  0.900968867902419 -0.4338837391175583 0  0.9214762118704076 -0.3884347962746947 0  0.9396926207859081 -0.3420201433256694 0  0.9555728057861406 -0.2947551744109047 0  0.9690772862290778 -0.246757397690294 0  0.9801724878485438 -0.1981461431993977 0  0.9888308262251285 -0.1490422661761744 0  0.9950307753654013 -0.09956784659581729 0  0.9987569212189223 -0.0498458856606976 0  0 -1.110223024625157e-16 0  -0.4060952245631048 0.2919625833433866 0  0.07454430279913359 0.4945691341012836 0  -0.3214937308814528 -0.3831413087744865 0  0.4060952245631052 -0.2919625833433861 0  0.4673719130775488 0.1970137823441975 0  0.07065575168974669 -0.5638195129952732 0  -0.5876518183134565 -0.07364232701738999 0  -0.2541979963622033 0.6030288969972762 0  0.4076207702370422 0.5262112245891383 0  0.6613130009878312 -0.07561785461588438 0  -0.2877924882763663 -0.08496671912316978 0  0.1122523041955583 -0.2722698749696852 0  -0.2136446684141768 -0.6649681138278456 0  0.3711239967993034 -0.5916870927688695 0  -0.6811618247539664 0.2288582017624023 0  -0.6036259983084502 -0.3898630043774365 0  -0.1519565356019055 0.3604834946258824 0  0.2223728889826192 0.7073349201016491 0  -0.5313477807263849 0.5182619981567066 0  0.6605018953341746 -0.3386195639300833 0  0.2873299503248539 -0.02875169806262802 0  0.1874625299482133 0.2355619893962034 0  0.7230148253408941 0.1735722145348512 0  -0.4549609197086589 -0.5957654959402137 0  -0.03463157487303079 0.7407085179683447 0  0.6291441987588993 0.406976916748466 0  -0.2289589159049669 0.1405285933300958 0  -0.08807616397075169 -0.392430403720013 0  0.205296612242771 -0.7458798537797463 0  -0.7547001834030465 -0.2123397074488059 0  -0.7837591992851975 0.01954573416024249 0  -0.01646532341657923 -0.7690653170628658 0  -0.4352401762958623 0.07855348178493107 0  0.2338185418859718 -0.4383564083763345 0  -0.4660907991281192 -0.2382969082541435 0  -0.07353959542582791 -0.189593951033018 0  -0.01634378184019994 0.2053797911459911 0  0.5767924862461576 -0.5348822709432305 0  0.4676013569319232 -0.1058100506567658 0  -0.4227737526629002 0.6918385751529503 0  0.3451218286438238 0.3448460222806342 0  -0.2417662837479932 0.783787041456639 0  0.7894336726564478 -0.2075150882455891 0  0.429437930868693 0.7027440193188219 0  0.5795530210908955 0.5802417886451888 0  0.818250434369694 0.01775696154863614 0  -0.09722442279153222 0.5263769109750763 0  -0.3089301091725765 0.4371354806480824 0  -0.7090524339547675 0.409371613613344 0  0.2438561876582929 0.4811936910778122 0  0.5432018434834983 0.04565923381603147 0  -0.3666591398357442 -0.7431965258712754 0  -0.5618207183878967 0.3397086085210991 0  -0.6185121444690291 -0.5572316488307958 0  -0.5977938369819751 0.08892586939414393 0  -0.2319369917805521 -0.2422716374480734 0  -0.2088517301748016 -0.8202123616008853 0  0.3674245052370875 -0.7539747860075445 0  0.5048967506413504 -0.6753011662259081 0  0.06820072641026245 0.3376857440261995 0  0.5825625451404475 -0.2068770910951368 0  -0.2093208387955752 -0.5017643152297908 0  0.4421364691493548 -0.4480702397503655 0  -0.06721994241050155 -0.6264082819342098 0  0.2198456810463068 -0.5890117939449101 0  0.1072482179998102 0.8270400658162729 0  0.101706945347264 0.1114338704246025 0  -0.826215081689274 0.1701570551503884 0  -0.7559016678791552 -0.3875281735895096 0  -0.1403081793782837 -0.05463656608767534 0  -0.4381435912761569 -0.0904638073416138 0  0.2648585596196462 -0.1972910845697012 0  0.1356675309518404 -0.09429826762197367 0  0.08800287638571841 -0.4175523043917539 0  0.772184265774069 0.3484228092971817 0  0.4820585818083429 0.3991084987153591 0  -0.6096551968804708 -0.2170872236035365 0  0.3980609174667186 0.06761537960865138 0  0.2429849976623634 0.1055167835565284 0  -0.4627258547488082 -0.3795349891758816 0  -0.5092671392521492 0.1973579212248526 0  0.7098874552164247 -0.4756664543534329 0  -0.3872144293666887 0.5549387157286028 0  0.007479912798405555 0.612104857903693 0  -0.1106088318060157 0.07657058882501411 0  -0.08645511997809778 0.8639888077054165 0  0.8546013271693483 0.1469869706377941 0  -0.7957961633846122 0.3035577340122536 0  -0.6516041046685823 0.5750440342764058 0  0.7950924905082843 -0.342029907248517 0  -0.8517730591837042 -0.1067410126442437 0  0.3279509223104274 0.7972989472436024 0  0.5615550327388615 0.2917503018191212 0  0.1039924397968217 -0.8490717333777242 0  -0.274352362125688 0.3088893272147279 0  -0.3199998995660726 -0.5804912223174621 0  0.3315659806484027 0.2091724322371269 0  -0.1325896474512148 0.6530104098458814 0  0.1376376998738423 0.6084703306290548 0  0.3241561268038429 0.6261409266958099 0  0.6961548279354922 0.5198857607104763 0  0.5313120496018447 -0.3261229251073059 0  -0.4541049825189052 0.4132022653064708 0  -0.544101644468135 0.646985081491446 0  0.5933756450024116 0.1654697377387106 0  0.6936465783424133 0.04861005800032081 0  0.1936093818855595 0.3634402114305412 0  -0.4937059030800814 
[...]
<PointData  Scalars="velocity-2"> 
<DataArray  type="Float64"  Name="velocity-2"  format="ascii">0.0000000000000000e+00  0.0000000000000000e+00  0.0000000000000000e+00  0.0000000000000000e+00  0.0000000000000000e+00  0.0000000000000000e+00  0.0000000000000000e+00  0.0000000000000000e+00  0.0000000000000000e+00  0.0000000000000000e+00  0.0000000000000000e+00  0.0000000000000000e+00  0.0000000000000000e+00  0.0000000000000000e+00  0.0000000000000000e+00  0.0000000000000000e+00  0.0000000000000000e+00  0.0000000000000000e+00  0.0000000000000000e+00  0.0000000000000000e+00  0.0000000000000000e+00  0.0000000000000000e+00  0.0000000000000000e+00  0.0000000000000000e+00  0.0000000000000000e+00  0.0000000000000000e+00  0.0000000000000000e+00  0.0000000000000000e+00  0.0000000000000000e+00  0.0000000000000000e+00  0.0000000000000000e+00  0.0000000000000000e+00  0.0000000000000000e+00  0.0000000000000000e+00  0.0000000000000000e+00  0.0000000000000000e+00  0.0000000000000000e+00  0.0000000000000000e+00  0.0000000000000000e+00  0.0000000000000000e+00  0.0000000000000000e+00  0.0000000000000000e+00  0.0000000000000000e+00  0.0000000000000000e+00  0.0000000000000000e+00  0.0000000000000000e+00  0.0000000000000000e+00  0.0000000000000000e+00  0.0000000000000000e+00  0.0000000000000000e+00  0.0000000000000000e+00  0.0000000000000000e+00  0.0000000000000000e+00  0.0000000000000000e+00  0.0000000000000000e+00  0.0000000000000000e+00  0.0000000000000000e+00  0.0000000000000000e+00  0.0000000000000000e+00  0.0000000000000000e+00  0.0000000000000000e+00  0.0000000000000000e+00  0.0000000000000000e+00  0.0000000000000000e+00  0.0000000000000000e+00  0.0000000000000000e+00  0.0000000000000000e+00  0.0000000000000000e+00  0.0000000000000000e+00  0.0000000000000000e+00  0.0000000000000000e+00  0.0000000000000000e+00  0.0000000000000000e+00  0.0000000000000000e+00  0.0000000000000000e+00  0.0000000000000000e+00  0.0000000000000000e+00  0.0000000000000000e+00  0.0000000000000000e+00  0.0000000000000000e+00  0.0000000000000000e+00  0.0000000000000000e+00  0.0000000000000000e+00  0.0000000000000000e+00  0.0000000000000000e+00  0.0000000000000000e+00  0.0000000000000000e+00  0.0000000000000000e+00  0.0000000000000000e+00  0.0000000000000000e+00  0.0000000000000000e+00  0.0000000000000000e+00  0.0000000000000000e+00  0.0000000000000000e+00  0.0000000000000000e+00  0.0000000000000000e+00  0.0000000000000000e+00  0.0000000000000000e+00  0.0000000000000000e+00  0.0000000000000000e+00  0.0000000000000000e+00  0.0000000000000000e+00  0.0000000000000000e+00  0.0000000000000000e+00  0.0000000000000000e+00  0.0000000000000000e+00  0.0000000000000000e+00  0.0000000000000000e+00  0.0000000000000000e+00  0.0000000000000000e+00  0.0000000000000000e+00  0.0000000000000000e+00  0.0000000000000000e+00  0.0000000000000000e+00  0.0000000000000000e+00  0.0000000000000000e+00  0.0000000000000000e+00  0.0000000000000000e+00  0.0000000000000000e+00  0.0000000000000000e+00  0.0000000000000000e+00  0.0000000000000000e+00  0.0000000000000000e+00  0.0000000000000000e+00  0.0000000000000000e+00  0.0000000000000000e+00  1.3197334050599434e+00  9.8249025305895954e-01  9.8252514297036397e-01  9.8234040648446297e-01  9.8312599304088943e-01  9.7341187246596206e-01  8.8061114876820834e-01  8.3948662974815502e-01  7.3187532433998537e-01  7.1040319638593419e-01  7.0978116955102444e-01  1.2009493147286745e+00  1.2049760011515964e+00  6.4821140469520810e-01  6.4926831550118291e-01  6.0904099350320928e-01  6.0968247426005517e-01  1.1156456560546435e+00  5.6530828762347995e-01  5.6407171985268789e-01  5.6437908753571364e-01  1.2086560714722498e+00  1.1998240486356881e+00  5.6137935451600396e-01  5.4916198734890420e-01  5.6600088719031871e-01  5.5005953322041912e-01  1.2250788796259902e+00  1.1038557628112737e+00  5.0116194027181538e-01  4.8039927843220620e-01  4.8019960266536260e-01  5.0944977477945574e-01  1.0579357545570518e+00  9.8743740532347879e-01  9.4922067679841071e-01  1.2657000295958676e+00  1.2636611961285207e+00  4.7586808036245204e-01  1.0107276831576579e+00  4.2772637482165166e-01  9.9938231482987805e-01  4.0732156425958616e-01  4.1474057270168946e-01  3.9956089710214404e-01  4.0627101381821590e-01  4.1035035988777108e-01  9.3307665819791041e-01  9.3149701109617178e-01  4.0922264002601716e-01  9.2630499030655988e-01  9.1726156189726615e-01  3.8908914324226601e-01  7.2712215934937630e-01  3.8108980310381274e-01  8.2076470145949498e-01  1.1696830775191092e+00  3.5218863142450380e-01  3.6817522867155955e-01  3.5824345793649487e-01  1.1611690965239965e+00  7.9680947234109212e-01  9.1930441562412279e-01  7.7672918403577129e-01  7.7571270835448702e-01  7.7822144746144395e-01  3.7764458220759561e-01  1.2893026737988078e+00  3.5818473002686890e-01  3.4516442748225984e-01  1.2901708957891687e+00  1.0509390394349394e+00  1.1750548656285427e+00  1.2838924060684485e+00  1.0760315320672418e+00  3.5065323728162900e-01  7.8278773316768235e-01  7.4433675521101583e-01  1.1018739231461081e+00  1.2268310840724890e+00  8.3078742451729737e-01  9.1590879535936298e-01  3.3486434508347657e-01  6.8949192839140461e-01  8.0749118073346027e-01  1.2964698611090768e+00  3.0497567180233764e-01  3.0677691936223228e-01  3.4035413950135951e-01  3.0344052389376425e-01  3.1155789479422041e-01  3.2681854144116029e-01  3.1803154222142238e-01  7.7115788916788952e-01  3.3338236407454258e-01  1.0917048764814208e+00  7.1527659066525262e-01  1.1135823894751222e+00  7.0964612174193953e-01  7.8562002517717955e-01  6.3641015819345281e-01  3.0370247071466627e-01  7.8749107984357447e-01  8.0393754341217205e-01  3.5310685163658778e-01  8.0020818778822500e-01  6.5406113818519473e-01  1.0939543328828620e+00  2.9632470577539216e-01  1.0821350445798767e+00  2.8662954625961024e-01  7.8690369343090460e-01  1.1174794518130879e+00  6.2135472229739175e-01  1.1072154749729317e+00  9.7237894699066385e-01  6.0471637725637228e-01  1.1748305360532738e+00  1.0920707891404062e+00  6.0197571679852546e-01  1.2473908016156467e+00  1.2215327616853580e+00  1.1123629725067639e+00  2.9753776157276390e-01  2.7512217371796666e-01  1.2777817109080045e+00  9.2712931528234477e-01  1.2762655223244630e+00  6.9683836382130604e-01  9.5933645060380079e-01  2.7076932227538364e-01  2.6282855569643915e-01  5.5966286139329835e-01  5.4664767462617625e-01  3.4933898443972233e-01  1.0848445688630413e+00  5.7931676501028895e-01  5.9696188221603064e-01  1.1410265567641078e+00  2.8415279359891160e-01  3.9506650322634412e-01  5.8062286920129813e-01  2.6258443874032744e-01  2.6709880621127624e-01  9.7608628419677845e-01  1.1870577192967475e+00  7.1551865151987371e-01  1.1900635000990463e+00  6.0083746640539704e-01  5.9792803387344806e-01  4.8359360363451304e-01  2.7382202224525820e-01  1.2489355178775319e+00  5.5314062447941104e-01  6.2739458967632844e-01  5.1108561741371705e-01  1.3056531828888447e+00  1.2488020375078752e+00  8.3003147013021095e-01  9.5290378404276677e-01  5.8703865013857592e-01  9.4973392823495451e-01  9.8733078434169486e-01  7.9060745437089197e-01  9.0983198522804776e-01  2.5939094375522737e-01  1.3059802680467767e+00  5.2094455116272576e-01  9.3366199815528705e-01  7.2588403784950917e-01  2.3348548438969258e-01  2.5475471869752209e-01  8.6504095228658817e-01  1.1135321060468109e+00  1.1791474746598074e+00  5.0503521559507425e-01  2.8801094801384852e-01  2.2211489599687706e-01  2.3077729707695180e-01  3.1897253082598909e-01  2.3902536920589124e-01  2.4403811307248818e-01  8.8954147034986875e-01  1.1106234763525422e+00  2.3389336222729620e-01  5.4019405088521300e-01  2.3337660488372902e-01  2.1843251134734482e-01  2.3357486985060244e-01  2.1675514855979544e-01  8.1882927015534401e-01  7.2829395857440038e-01  8.8929960882789016e-01  6.0031809360843236e-01  2.1382935534476358e-01  5.1725982032172002e-01  2.1098463570049619e-01  2.2167653093872064e-01  5.7892495228225271e-01  4.9400870437474120e-01  2.2481681020740416e-01  5.2228735002727356e-01  2.1305576241525093e-01  2.1698591431070607e-01  1.3089014682496749e+00  2.0670404727902800e-01  2.1584123803972097e-01  1.0624781098404323e+00  1.2511826923998277e+00  7.8937715680800424e-01  2.2885820867922718e-01  1.0813054876096198e+00  1.0163046067367494e+00  1.1723571094548408e+00  1.2412433793509761e+00  4.6558721468581699e-01  7.8006989061012200e-01  1.0266074260250990e+00  9.7442796886747474e-01  1.0436998950461369e+00  9.4149316653545789e-01  8.2780004025155707e-01  8.2926527343272360e-01  1.1783296656147335e+00  1.0897187891190594e+00  1.0114918187231474e+00  1.9897705494816803e-01  4.5915264351754187e-01  5.9035387997074296e-01  4.9659051371569313e-01  1.0803648962054264e+00  9.9522795275809850e-01  1.0103373582910240e+00  4.4666504995672995e-01  9.3727771375409674e-01  7.9482687924708406e-01  2.0607020794312503e-01  2.2118188713858153e-01  2.0366476079187687e-01  4.9293573206966457e-01  2.0083279435110268e-01  1.1866775868690562e+00  5.0855800128664375e-01  7.8572277130848367e-01  8.9359328459631215e-01  3.9973045512864469e-01  7.2235966314063249e-01  1.3096023574675697e+00  3.7955276186258946e-01  1.8581733137465201e-01  1.2404395017001151e+00  7.6928342329162824e-01  1.9949946625529738e-01  1.9941700389552769e-01  9.5257581255528567e-01  8.5701167439277959e-01  7.8909999735718683e-01  1.9429014979466638e-01  5.1187527889034845e-01  7.6857350729111640e-01  6.3883233914873794e-01  6.6389952068790969e-01  4.3421036990840706e-01  1.1929161107494408e+00  8.9503219012797131e-01  6.3757847731538575e-01  1.1556962629018659e+00  1.2748191480910034e+00  4.0842406960292243e-01  1.9335832402315811e-01  9.9403738258511143e-01  1.0312646272903292e+00  8.5721391813891668e-01  5.1557266782473876e-01  4.4183906197314399e-01  2.6864709522001878e-01  6.4567094830888339e-01  1.0705443958995449e+00  1.0838623151977256e+00  1.2234092937681598e+00  1.1716502542081533e+00  3.9028793738881529e-01  7.0168411328591640e-01  4.1800587961521712e-01  5.0701561527719852e-01  1.1981326264116445e+00  5.2202811485741130e-01  1.9075860225586427e-01  4.8842898797918377e-01  1.8352334035965676e-01  1.0824171362880630e+00  6.0037033347556934e-01  2.4792343207718762e-01  4.1418479420123555e-01  7.1234526745730087e-01  6.9775328032299444e-01  8.3738081451963475e-01  1.8910429002135792e-01  4.8020033010883811e-01  1.1582037391269546e+00  3.9611412111131933e-01  1.7653943194270483e-01  1.7236904462083055e-01  6.0903013326702926e-01  8.4940543570153948e-01  6.9532187306639603e-01  6.5200194877723039e-01  8.4057625002994718e-01  7.1142480445763923e-01  9.9628974032318551e-01  7.7880784991708907e-01  1.8889983550473655e-01  1.2518887597570265e+00  1.3126720499743931e+00  1.2883198420815700e+00  1.2538735957573364e+00  1.1341825839041786e+00  1.0395334346725846e+00  9.5530365987949506e-01  4.3713530452257060e-01  8.8291688416697156e-01  1.6895210819590262e-01  1.8451607556342456e-01  4.6830865607055411e-01  2.6146248538426392e-01  1.2858863586174718e+00  1.7851524095559562e-01  6.3232052390386806e-01  6.9871982730844651e-01  8.9738909944802636e-01  7.4546692008294657e-01  1.1472818548995967e+00  1.9084620568037408e-01  4.5661933167897806e-01  1.0186467988029164e+00  1.1882902094614058e+00  7.1021667425863111e-01  1.7983965709267760e-01  1.7136642356762763e-01  4.5387453816295087e-01  8.5423376508110782e-01  6.0471133720394943e-01  4.2166207201965905e-01  4.4437736248993359e-01  1.0958378447308481e+00  1.7259682904670223e-01  2.4300048111947511e-01  8.2165155717365790e-01  4.9790846405920619e-01  4.6726196676669696e-01  4.6578147873001957e-01  1.8032906734991289e-01  1.2174948721537484e+00  1.0343733620497575e+00  6.6885134279963299e-01  4.9870536590979464e-01  9.0442177582551853e-01  1.0992044649646278e+00  3.7946563907669772e-01  1.6987801572471600e-01  9.0774235889952104e-01  1.6131235102240188e-01  1.2712521773385121e+00  1.7184401671804767e-01  8.9293401344567080e-01  9.1773108717403140e-01  7.0398781564326818e-01  1.0464135573554434e+00  6.2176655682181581e-01  4.3103913084550233e-01  1.6216497065343541e-01  9.2617531032860601e-01  6.6941190759813385e-01  9.0791394084552512e-01  1.2486536389967027e+00  3.8458515430062917e-01  7.5542996075156210e-01  4.9027744253958200e-01  4.4132575818207131e-01  1.0659621791502305e+00  9.2099899622099368e-01  1.6645424442700801e-01  1.1725518625060547e+00  1.0716410558363425e+00  1.1225568950302438e+00  8.2407469200347438e-01  1.1823414774352654e+00  1.7112646822144156e-01  4.2270622871865965e-01  5.8430911347106262e-01  3.6541224136468181e-01  3.7488809592125211e-01  6.6288626616185820e-01  3.8967769025335008e-01  7.5723486983317156e-01  8.8073858526866133e-01  1.8695343870568984e-01  1.1984170351482901e+00  6.7248180736286123e-01  6.8260417170722354e-01  3.5936627406953969e-01  6.0378321194848883e-01  4.2754376576520092e-01  8.8841086904838573e-01  6.5564522811780446e-01  7.5460584290149979e-01  1.0418346781700725e+00  3.5047344418556703e-01  1.2654333710862120e+00  1.2843134356409964e+00  1.3138831263382080e+00  1.5766964805343145e-01  2.3856572829302958e-01  1.6509158210046052e-01  3.3303847833698386e-01  8.8984261046400326e-01  5.9831127659869465e-01  8.2251292107077112e-01  8.7471117544308707e-01  1.5787158269404941e-01  1.0353911996902909e+00  1.1498621965437730e+00  1.0104110612660173e+00  5.9148150010535749e-01  3.4684093750424505e-01  1.5109129286052342e-01  1.8961015438915690e-01  1.6331998990089716e-01  6.7235722072261728e-01  1.0461839344580053e+00  1.2309006376529028e+00  1.5823158046881694e-01  6.8145455933585830e-01  5.2029539627985399e-01  1.5817767230443985e-01  8.3387054413987438e-01  9.0598259477863785e-01  6.6267564235004472e-01  3.8877261549794517e-01  5.7215093364844927e-01  1.3143753688617574e+00  3.9549295059357559e-01  7.2640110884158715e-01  5.8492032315615472e-01  6.0811397705486880e-01  4.4064607693016472e-01  1.4959587506320915e-01  5.3935596576107292e-01  1.1025323723411882e+00  1.0162871395367974e+00  1.1279811936254791e+00  3.6730989981591655e-01  1.2455672944554996e+00  7.1852916259042021e-01  1.5626194920925732e-01  8.2498618686500769e-01  1.1493849099157347e+00  1.0167179207806019e+00  1.4074401909664949e-01  1.0217052587472366e+00  5.3930229721064327e-01  5.5605232081362765e-01  1.5742575571537698e-01  1.1641635918330777e+00  7.0407044013906250e-01  1.0321303018085894e+00  1.1365933187172086e+00  1.1535760507069637e+00  6.1356671261481899e-01  1.4922092114693125e-01  3.5186320505849955e-01  1.5399918443763672e-01  7.1992587544873843e-01  1.1737161680649231e+00  3.7943205827149046e-01  1.4974808759789843e-01  8.5943695099144946e-01  1.4119136207066843e-01  5.8790594312057576e-01  1.2308738914589936e+00  1.3020396029074570e+00  1.2443257554626910e+00  1.0414890222621722e+00  1.3640384165196623e-01  1.3978002168471390e-01  1.1592131692115599e+00  1.1497506030505977e+00  1.2292723891368291e+00  8.8996730868410756e-01  4.6598285094695879e-01  3.3729611077460453e-01  4.0757926188477495e-01  3.4287330124987492e-01  2.4167568715309976e-01  7.9019835570086805e-01  1.1502740838081797e+00  6.0748195764962942e-01  1.2415208582076074e+00  1.0343184264652114e+00  1.1576718325520414e+00  1.1167181070696879e+00  1.0603061987448206e+00  1.0636899591354172e+00  3.4103636661387560e-01  1.3269718177761194e-01  1.2914849611016326e+00  1.2748795906610861e+00  1.3521715655429387e-01  5.0333705277723262e-01  1.2270676839276877e+00  1.3150254583154819e-01  9.9470023566044874e-01  6.7752257459853948e-01  1.5197268421580926e-01  8.2853171095892120e-01  1.3859267741456488e-01  9.0838338939007723e-01  6.7550473128064203e-01  1.4537182535716367e-01  1.3054009312553640e+00  3.5258515232007703e-01  3.8972653336628676e-01  3.7276484270287241e-01  9.8214042597501516e-01  9.0034188726706221e-01  8.3909480620392107e-01  3.2112453718539563e-01  1.1929691069103803e+00  1.1318078244420664e+00  9.1095786047135652e-01  5.2182141100036483e-01  1.0765359139497437e+00  8.1227526756149770e-01  4.6672582335149554e-01  8.3269445632812034e-01  3.7102379895450294e-01  1.3166163305898210e-01  3.8827745233192579e-01  1.4015110860231711e-01  1.3439352635111251e-01  1.0131890439983888e+00  9.2420610225534061e-01  8.3393415187493514e-01  9.5262996930228594e-01  7.5952674073388005e-01  1.1421603955957853e+00  1.0166070831488943e+00  1.0241519764780920e+00  1.2110097414882079e+00  3.4542706776663129e-01  5.8811818964370821e-01  1.2446682518243715e+00  1.1501633270753024e+00  5.5509500813671775e-01  3.7825547655147235e-01  1.2504257433302182e+00  1.2808619921874520e+00  1.0211750341765475e+00  3.7172689496928629e-01  2.9862753219320909e-01  1.4189845408303969e-01  1.4075589792074891e-01  1.0676300754402099e+00  7.4305921508947503e-01  7.7639492329066750e-01  4.7531979053955681e-01  8.9263487139576514e-01  1.1219604640310725e+00  3.0923530193629645e-01  5.5923133128745905e-01  1.2873664124517076e-01  6.6170711023613094e-01  1.1296469369461510e+00  1.9353253116349783e-01  5.4793158427713251e-01  1.2165644904268211e-01  1.3138128632440249e-01  1.2066158586261668e+00  1.0028997889770286e+00  1.2292906556115888e+00  3.9925309734563569e-01  3.5288051736247544e-01  3.6096438430703448e-01  1.1381528337999540e+00  1.0669630396772105e+00  9.4828028212299342e-01  4.2432931364295506e-01  1.2431978536899746e-01  1.2087445508204372e-01  4.9995737226098241e-01  6.3016477683287309e-01  9.8811855262481174e-01  6.9650783871201360e-01  5.8854084767833414e-01  4.9288514335416883e-01  4.7369003801605630e-01  5.4512944011400866e-01  4.6472704452789443e-01  4.5540945638504327e-01  1.2651107158971262e+00  1.3959089624799548e-01  2.8166598738717824e-01  1.0270371853793814e+00  1.1774352522162512e+00  1.0973640930713107e+00  5.3160729437949650e-01  4.9010726659986587e-01  2.3952854182430955e-01  4.1703612581677718e-01  6.8003075639962240e-01  8.7409710356501236e-01  4.1032785121486615e-01  3.2375318695074135e-01  8.0436123090052014e-01  1.3013985368620211e+00  2.8658404359333223e-01  6.0026014079675760e-01  2.8960352236105064e-01  1.2884144647250906e-01  3.0213554744510557e-01  8.6648553671864426e-01  4.8345580848739456e-01  5.0579838928802479e-01  1.3466316281459886e-01  1.0454642853573870e+00  5.9193371881045809e-01  6.4437317571346964e-01  9.0036725534179951e-01  9.0672613956238879e-01  1.0300293908314109e+00  4.8683951481659044e-01  3.1772640519251938e-01  3.4184002575486550e-01  6.1603901846995146e-01  5.2939758937892334e-01  7.1495211852530360e-01  1.2224578352114868e+00  8.9191240532766625e-01  6.4166431707986915e-01  5.3232018531773484e-01  6.6317237841474419e-01  7.0355320063457916e-01  3.4447836757068900e-01  3.5493696485679888e-01  5.1197857331376584e-01  6.5599789770118455e-01  1.1138736347632943e+00  7.9201135394106537e-01  7.3550253731245818e-01  3.3474658512874822e-01  1.0121621279428596e+00  1.1271772030991132e+00  9.7089024788084277e-01  9.6774348788669717e-01  8.7856014297856222e-01  1.0889063222543967e+00  6.0906829801716722e-01  4.9706212563489327e-01  6.9045936658527574e-01  1.1860197012287751e-01  1.1035205201920439e+00  1.2035241777887110e-01  6.2046763170166497e-01  9.7957005751466109e-01  2.6261060610257070e-01  4.7030577640214705e-01  6.8043925544250650e-01  4.9603456878549612e-01  3.3078352649513243e-01  1.2133065713528610e+00  1.2537843952601471e+00  9.3361245035877871e-01  2.7157608148985662e-01  1.2121582777999238e+00  1.2204948994356833e-01  2.8261169840134326e-01  1.2559156870219607e-01  2.6977302110181312e-01  2.8689277936538637e-01  4.8732685825399330e-01  3.1097701224482560e-01  2.9456662282763690e-01  4.7358263255443339e-01  1.2917725240892943e+00  1.2132947000655692e-01  4.8236673682837511e-01  7.3794661585175370e-01  1.1694541578573310e-01  1.0662056192599905e+00  9.6562937620939415e-01  2.8865374336807526e-01  6.7403799681666965e-01  1.1226540502736633e-01  2.7806844724331559e-01  5.1343902031098065e-01  1.2732644867069012e+00  1.2613752494485015e+00  4.5563839104555520e-01  8.1448221053430225e-01  7.4854314945830758e-01  1.2975540543796433e+00  1.2885905397717059e+00  1.2740105321153974e+00  9.15536