<?xml version="1.0"?>
<VTKFile type="UnstructuredGrid"  version="0.1"  >
<UnstructuredGrid>
<Piece  NumberOfPoints="3238" NumberOfCells="6293">
<Points>
<DataArray  type="Float64"  NumberOfComponents="3"  format="ascii">0.9486832980505138 0 0  0.9475040099727444 0.047287959202839 0  0.9439690776354089 0.09445835308830697 0  0.9380872894372694 0.1413939086249357 0  0.9298732684305336 0.1879779366263939 0  0.9193474359656434 0.23409462185919 0  0.906535960920579 0.279629310977591 0  0.8914706946409063 0.3244687975699048 0  0.8741890917523123 0.3685016036074568 0  0.8547341170425047 0.4116182565965337 0  0.8331541386439797 0.453711561744252 0  0.809502807783224 0.4946768684617026 0  0.7838389253953122 0.5344123305418039 0  0.7562262959355172 0.5728191593650196 0  0.7267335687513813 0.6098018695034324 0  0.6954340674096222 0.6452685161125631 0  0.6624056074021922 0.6791309235207397 0  0.6277303026847052 0.7113049044477118 0  0.5914943615282048 0.741710469307493 0  0.5537878721918187 0.7702720250750756 0  0.514704578949153 0.7969185632226012 0  0.4743416490252568 0.8215838362577492 0  0.4327994310235916 0.8442065224254403 0  0.3901812054435905 0.8647303781633826 0  0.3465929279090647 0.8831043779324287 0  0.3021429657458285 0.8992828410741055 0  0.2569418285634513 0.9132255453799296 0  0.211101893510957 0.9248978270901541 0  0.1647371258895251 0.9342706670733373 0  0.1179627958167953 0.9413207629724764 0  0.07089519164719264 0.9460305871383375 0  0.02365133086075582 0.9483884302059546 0  -0.02365133086075571 0.9483884302059546 0  -0.07089519164719252 0.9460305871383375 0  -0.1179627958167952 0.9413207629724764 0  -0.164737125889525 0.9342706670733373 0  -0.2111018935109568 0.9248978270901541 0  -0.2569418285634511 0.9132255453799297 0  -0.3021429657458284 0.8992828410741056 0  -0.3465929279090646 0.8831043779324288 0  -0.3901812054435902 0.8647303781633827 0  -0.4327994310235911 0.8442065224254405 0  -0.4743416490252571 0.821583836257749 0  -0.5147045789491529 0.7969185632226014 0  -0.5537878721918184 0.7702720250750758 0  -0.5914943615282047 0.7417104693074931 0  -0.627730302684705 0.711304904447712 0  -0.6624056074021921 0.6791309235207398 0  -0.6954340674096222 0.6452685161125631 0  -0.7267335687513812 0.6098018695034326 0  -0.7562262959355172 0.5728191593650196 0  -0.783838925395312 0.5344123305418041 0  -0.8095028077832239 0.4946768684617027 0  -0.8331541386439798 0.4537115617442519 0  -0.8547341170425046 0.4116182565965338 0  -0.8741890917523124 0.3685016036074567 0  -0.8914706946409062 0.324468797569905 0  -0.9065359609205789 0.2796293109775914 0  -0.9193474359656433 0.2340946218591902 0  -0.9298732684305336 0.1879779366263939 0  -0.9380872894372694 0.141393908624936 0  -0.9439690776354089 0.09445835308830704 0  -0.9475040099727444 0.0472879592028393 0  -0.9486832980505138 1.161801964362116e-16 0  -0.9475040099727444 -0.04728795920283906 0  -0.9439690776354089 -0.0944583530883068 0  -0.9380872894372694 -0.1413939086249357 0  -0.9298732684305338 -0.1879779366263937 0  -0.9193474359656434 -0.23409462185919 0  -0.9065359609205791 -0.2796293109775908 0  -0.8914706946409063 -0.3244687975699048 0  -0.8741890917523123 -0.3685016036074569 0  -0.8547341170425047 -0.4116182565965337 0  -0.8331541386439799 -0.4537115617442517 0  -0.809502807783224 -0.4946768684617024 0  -0.7838389253953122 -0.5344123305418039 0  -0.7562262959355173 -0.5728191593650194 0  -0.7267335687513813 -0.6098018695034324 0  -0.6954340674096223 -0.6452685161125629 0  -0.6624056074021922 -0.6791309235207396 0  -0.6277303026847055 -0.7113049044477116 0  -0.5914943615282049 -0.7417104693074928 0  -0.5537878721918191 -0.7702720250750751 0  -0.5147045789491528 -0.7969185632226014 0  -0.4743416490252565 -0.8215838362577493 0  -0.4327994310235917 -0.8442065224254401 0  -0.3901812054435904 -0.8647303781633826 0  -0.3465929279090654 -0.8831043779324285 0  -0.302142965745829 -0.8992828410741054 0  -0.2569418285634507 -0.9132255453799298 0  -0.2111018935109571 -0.9248978270901541 0  -0.164737125889525 -0.9342706670733373 0  -0.1179627958167959 -0.9413207629724762 0  -0.07089519164719296 -0.9460305871383375 0  -0.02365133086075594 -0.9483884302059546 0  0.02365133086075559 -0.9483884302059546 0  0.07089519164719262 -0.9460305871383375 0  0.1179627958167947 -0.9413207629724765 0  0.1647371258895247 -0.9342706670733374 0  0.2111018935109567 -0.9248978270901541 0  0.2569418285634512 -0.9132255453799296 0  0.3021429657458287 -0.8992828410741055 0  0.3465929279090643 -0.8831043779324289 0  0.3901812054435901 -0.8647303781633827 0  0.4327994310235914 -0.8442065224254404 0  0.474341649025257 -0.8215838362577491 0  0.5147045789491531 -0.7969185632226011 0  0.5537878721918182 -0.7702720250750759 0  0.5914943615282046 -0.7417104693074931 0  0.6277303026847045 -0.7113049044477123 0  0.6624056074021923 -0.6791309235207396 0  0.6954340674096223 -0.6452685161125629 0  0.7267335687513811 -0.6098018695034327 0  0.756226295935517 -0.5728191593650197 0  0.7838389253953117 -0.5344123305418045 0  0.8095028077832241 -0.4946768684617024 0  0.8331541386439795 -0.4537115617442524 0  0.8547341170425046 -0.4116182565965339 0  0.8741890917523123 -0.3685016036074568 0  0.891470694640906 -0.3244687975699055 0  0.9065359609205789 -0.2796293109775915 0  0.9193474359656433 -0.2340946218591903 0  0.9298732684305336 -0.187977936626394 0  0.9380872894372694 -0.1413939086249356 0  0.9439690776354088 -0.09445835308830756 0  0.9475040099727444 -0.04728795920283941 0  -1.110223024625157e-16 0 0  0.09401819085916749 0.4650811898201446 0  -0.1170837026517897 -0.4598166372700095 0  0.3396710376326679 -0.3313057795005979 0  -0.3985831684342213 0.2574323040682528 0  0.4497812206361214 0.1511184532081793 0  -0.4678296522449308 -0.1836096083159234 0  -0.2355895500368295 0.5588844465176851 0  0.6052680571897296 -0.13814848431036 0  0.4316692651305813 0.4652288238608486 0  0.1699440018198525 -0.6040168882337353 0  -0.4163959192923318 -0.4962413327582046 0  -0.642769633956783 0.08054948543602583 0  -0.1115343976851466 0.2645908534915992 0  -0.1931670123238877 -0.1956285404753415 0  -0.2498407161687224 0.05177370136134687 0  5.898059818321144e-17 0.6981687943722161 0  -0.483109708437092 0.4979263437835442 0  0.361822037928239 -0.08258351904766598 0  0.4140141091090378 -0.566746635611325 0  0.6929212426656604 0.09538900823688645 0  -0.0577528169651628 -0.6994812675480986 0  0.2627635891281025 0.6484391215838409 0  0.1382745535810828 0.2140908845129365 0  0.1054207391253911 -0.3746875801437122 0  0.5845251382931255 -0.3858631758496659 0  -0.6990994377782311 -0.1595648846227037 0  0.6286160902717877 0.3271574405247115 0  -0.6370624647935379 0.3175922410853823 0  -0.6124653864901638 -0.3738489675350367 0  -0.2494905375702229 -0.6197712340060334 0  -0.4462945377711946 0.06630684398331937 0  0.154085691826424 -0.1588211969343469 0  0.2628873183017176 0.3654604251354111 0  -0.2806326729121043 -0.3638673359729195 0  0.2026367527909965 0.03002855433820255 0  -0.1883118667610724 0.7395472415971669 0  -0.3689568220919447 0.6775183381377181 0  -0.01993573429158397 -0.1734976089647549 0  -0.06367146275187838 0.5369808941678446 0  -0.3316788968411377 0.416048485101486 0  0.7214844899758113 -0.2726059376698902 0  0.7720971247867674 -0.09675632267405895 0  0.1158073085217154 -0.7683312895489415 0  0.3018176618408421 -0.7159960909166414 0  0.4736984522064285 0.6253687923070728 0  0.5997774220600344 0.495521041348345 0  0.5469845192899859 0.01694506421294018 0  0.4856555657620147 -0.2528582988922201 0  0.2423446599045919 -0.4599048318856052 0  0.01521443790310079 -0.5542414116777824 0  -0.3574093932547061 -0.06723838122191451 0  -0.1666092886506407 0.4146684525890751 0  -0.4115626391796692 -0.6642315991087294 0  0.2992692056075354 0.2085319774104712 0  -0.572142060044865 -0.06268399171098044 0  -0.4371838101656676 -0.3391145623819656 0  -0.7707361814220313 0.1759155038859614 0  -0.5659336192050233 -0.5519960729153512 0  -0.781552063470025 -0.01355730092482357 0  0.4696031588163752 0.3098387714856638 0  -0.0407097757674429 -0.3260896361090374 0  0.1559699745134315 0.7715390038889668 0  -0.5407358600344384 0.1966829475589161 0  -0.1986272613426354 -0.7678844928272964 0  0.5718291349409204 -0.5447036247449454 0  0.03058522588194268 0.3244992985667739 0  -0.253677331372863 0.2056171147481587 0  -0.1073780288228645 0.1105396375341932 0  -0.6367212858270217 0.4731834134190286 0  0.2931219035594987 0.5069630201331456 0  0.7563577705703616 0.2377948341003486 0  0.3420380570748312 0.05826637322450373 0  -0.1206725986386512 -0.07402828271247157 0  -0.3322725603356667 -0.2301646198664473 0  -0.7419042025048581 -0.3015255626410849 0  0.1195701669044717 0.6108932180062702 0  -0.5015416239321893 0.635717225788853 0  0.02737692077249736 0.134017139808744 0  0.3773860468351642 0.7206094891915363 0  0.812860493436187 0.03242610295987979 0  -0.07388611981097105 0.8111052309222055 0  -0.2442959246965964 -0.4892922127605825 0  0.7135655733810858 -0.4024692785058807 0  -0.3642932467066346 0.5484789362268634 0  -0.4524881480946273 0.3735876073978892 0  0.2099213516485349 -0.2848275062564233 0  0.3122478006637144 -0.2035159833569798 0  0.43109624127659 -0.6963837980763679 0  -0.004731464407071888 -0.8190067012611293 0  0.5600613423512718 0.2179439150874347 0  0.4468733578206618 -0.4269132077142946 0  0.4872830744017452 -0.09398863600514806 0  0.6664633094267685 -0.02789868416369569 0  -0.1060590692061801 -0.5842636330575839 0  0.2930869539360575 -0.5926370091989965 0  0.7165056531269813 0.4136747317087512 0  -0.6713889199795591 -0.4826957611142691 0  -0.1650615436669499 -0.3170959485608871 0  -0.7560359509185862 0.3411364121550141 0  -0.8181202307149236 -0.1442566701384753 0  -0.5906147236861463 -0.2403599348016739 0  0.1272020529197239 -0.4923009383391831 0  -0.1391534729758148 0.6301655208396788 0  -0.3568886656162428 0.1455060335331444 0  0.06164593118022811 -0.2623143376591542 0  -0.2389144395603171 -0.06622081533685589 0  -0.3247128298437102 
[...]
<PointData  Scalars="f_28-2"> 
<DataArray  type="Float64"  Name="f_28-2"  format="ascii">0.0000000000000000e+00  0.0000000000000000e+00  0.0000000000000000e+00  0.0000000000000000e+00  0.0000000000000000e+00  0.0000000000000000e+00  0.0000000000000000e+00  0.0000000000000000e+00  0.0000000000000000e+00  0.0000000000000000e+00  0.0000000000000000e+00  0.0000000000000000e+00  0.0000000000000000e+00  0.0000000000000000e+00  0.0000000000000000e+00  0.0000000000000000e+00  0.0000000000000000e+00  0.0000000000000000e+00  0.0000000000000000e+00  0.0000000000000000e+00  0.0000000000000000e+00  0.0000000000000000e+00  0.0000000000000000e+00  0.0000000000000000e+00  0.0000000000000000e+00  0.0000000000000000e+00  0.0000000000000000e+00  0.0000000000000000e+00  0.0000000000000000e+00  0.0000000000000000e+00  0.0000000000000000e+00  0.0000000000000000e+00  0.0000000000000000e+00  0.0000000000000000e+00  0.0000000000000000e+00  0.0000000000000000e+00  0.0000000000000000e+00  0.0000000000000000e+00  0.0000000000000000e+00  0.0000000000000000e+00  0.0000000000000000e+00  0.0000000000000000e+00  0.0000000000000000e+00  0.0000000000000000e+00  0.0000000000000000e+00  0.0000000000000000e+00  0.0000000000000000e+00  0.0000000000000000e+00  0.0000000000000000e+00  0.0000000000000000e+00  0.0000000000000000e+00  0.0000000000000000e+00  0.0000000000000000e+00  0.0000000000000000e+00  0.0000000000000000e+00  0.0000000000000000e+00  0.0000000000000000e+00  0.0000000000000000e+00  0.0000000000000000e+00  0.0000000000000000e+00  0.0000000000000000e+00  0.0000000000000000e+00  0.0000000000000000e+00  0.0000000000000000e+00  0.0000000000000000e+00  0.0000000000000000e+00  0.0000000000000000e+00  0.0000000000000000e+00  0.0000000000000000e+00  0.0000000000000000e+00  0.0000000000000000e+00  0.0000000000000000e+00  0.0000000000000000e+00  0.0000000000000000e+00  0.0000000000000000e+00  0.0000000000000000e+00  0.0000000000000000e+00  0.0000000000000000e+00  0.0000000000000000e+00  0.0000000000000000e+00  0.0000000000000000e+00  0.0000000000000000e+00  0.0000000000000000e+00  0.0000000000000000e+00  0.0000000000000000e+00  0.0000000000000000e+00  0.0000000000000000e+00  0.0000000000000000e+00  0.0000000000000000e+00  0.0000000000000000e+00  0.0000000000000000e+00  0.0000000000000000e+00  0.0000000000000000e+00  0.0000000000000000e+00  0.0000000000000000e+00  0.0000000000000000e+00  0.0000000000000000e+00  0.0000000000000000e+00  0.0000000000000000e+00  0.0000000000000000e+00  0.0000000000000000e+00  0.0000000000000000e+00  0.0000000000000000e+00  0.0000000000000000e+00  0.0000000000000000e+00  0.0000000000000000e+00  0.0000000000000000e+00  0.0000000000000000e+00  0.0000000000000000e+00  0.0000000000000000e+00  0.0000000000000000e+00  0.0000000000000000e+00  0.0000000000000000e+00  0.0000000000000000e+00  0.0000000000000000e+00  0.0000000000000000e+00  0.0000000000000000e+00  0.0000000000000000e+00  0.0000000000000000e+00  0.0000000000000000e+00  0.0000000000000000e+00  0.0000000000000000e+00  0.0000000000000000e+00  0.0000000000000000e+00  0.0000000000000000e+00  0.0000000000000000e+00  6.8471019735619154e-01  5.4022742304902549e-01  5.3630671910677175e-01  5.4658080045129798e-01  5.3914003985283043e-01  5.3731925728725805e-01  5.2752545414152385e-01  5.3178707811828774e-01  5.4215003050649124e-01  5.5372320214989357e-01  5.4694853335214544e-01  5.5368050211948272e-01  5.4899370663917102e-01  6.1764413549360009e-01  6.1924889499214519e-01  6.4303783904330980e-01  5.3492729699159125e-01  5.4266752728291556e-01  5.8930108020928729e-01  5.3767868594319945e-01  5.2944522069056654e-01  5.2959027512551760e-01  5.3297955255797946e-01  6.4496568427203793e-01  5.8623410172870671e-01  5.3302923097982868e-01  5.1105245735001537e-01  5.2820880255841363e-01  5.1984302474946109e-01  5.0770969477841410e-01  5.5535613721962795e-01  5.4398596211377570e-01  6.4498258780869744e-01  5.5560036453808304e-01  5.5146392464441774e-01  6.5722645572115523e-01  4.4788686190250593e-01  4.2401753947751053e-01  6.6056321655181938e-01  5.1177506090339508e-01  5.1214586323660971e-01  4.3009909244085970e-01  4.1936035979150782e-01  4.2128882360664544e-01  4.1672829228440844e-01  4.0094139145434871e-01  4.1618924103628568e-01  5.0994769497662640e-01  5.1662487218786823e-01  5.1358057085830566e-01  5.1138455337742306e-01  5.8244554595784437e-01  5.4643143313494513e-01  4.0686254519091281e-01  5.8496444824014859e-01  5.1520200114151693e-01  5.1783476818226570e-01  3.8734517808385177e-01  3.8264309853972939e-01  4.0877730141728136e-01  5.2750572243131499e-01  6.0112515668037847e-01  4.0503169882896356e-01  5.2107511982726584e-01  3.8140921162001484e-01  3.9314161619480731e-01  6.1111749628089951e-01  6.1008465937806300e-01  6.5821772967161007e-01  3.8608080465424044e-01  5.2778416915883730e-01  3.9106448751070622e-01  6.0788447909210386e-01  6.5840693604246359e-01  5.5987916995527320e-01  3.6571417365999198e-01  5.4258156431921489e-01  3.5171602426465076e-01  6.6683260955566848e-01  3.4200410701812450e-01  3.4094404328822703e-01  3.3712649967826008e-01  5.1694246275945999e-01  3.3256197927722064e-01  5.5216979615377582e-01  5.2864921553275479e-01  6.0230270019876575e-01  5.9478186525611443e-01  3.2777782342818773e-01  3.3422207690503397e-01  5.2972931520324518e-01  5.3860733775753156e-01  5.4094124221907902e-01  5.4661695056106652e-01  5.2801525488941148e-01  5.5575036375288966e-01  3.1218864277362962e-01  3.1361193679372357e-01  5.9181847825745304e-01  3.0678644595138810e-01  3.0813188152053300e-01  5.5414825096187847e-01  5.1894912862696074e-01  5.4995509575602619e-01  5.7804859255730390e-01  6.2680146276817583e-01  6.3847458639916999e-01  3.2145331565844359e-01  5.4671553101051640e-01  5.4743904398481846e-01  5.9670022331698824e-01  5.5417234697033402e-01  3.5318844782539299e-01  5.5803202474421232e-01  5.5006778171126469e-01  5.4096378671796053e-01  2.9811856887138810e-01  5.4873019442375226e-01  5.8989417126532995e-01  6.3428205842240837e-01  6.7868978223794696e-01  5.4714661298944967e-01  5.4616375922710036e-01  5.4387723260414977e-01  5.5215660738186034e-01  3.0425560088189435e-01  2.8597361386207648e-01  2.9340168594515659e-01  5.5531882587249570e-01  5.5262824380086051e-01  5.4046166469727153e-01  5.4856152531876046e-01  5.0668951941307072e-01  2.8139840640057540e-01  5.3399229931729764e-01  6.6222353306395454e-01  6.3428552264463522e-01  5.0868045821506991e-01  6.4014188814023787e-01  2.7002360742033071e-01  2.9178294416865841e-01  5.1978281543801386e-01  2.8533821886863653e-01  2.7710217765359002e-01  5.3792979510005545e-01  5.1885616228277087e-01  5.3841254774216885e-01  5.9527618343837652e-01  5.1927000512104615e-01  2.8254409151373128e-01  5.5337953654660188e-01  5.2092378905431169e-01  2.8831461651164952e-01  2.5161030279234520e-01  5.9290904262058108e-01  3.5079866169686835e-01  4.9505952760803007e-01  5.1339990345111397e-01  5.5360146661833143e-01  5.8953681364977328e-01  5.1877844162290798e-01  5.3340438001194390e-01  6.4063820699405760e-01  4.7961251129756044e-01  4.6841585170407124e-01  5.2850252219114613e-01  5.5484754316688245e-01  6.6576046862583227e-01  6.0722373232020699e-01  5.8557994374031574e-01  2.4092810282909907e-01  2.4485873999412391e-01  6.6869207609136816e-01  2.3663892636476166e-01  2.4137107874029340e-01  5.0956122919717672e-01  5.4024521078795329e-01  2.4161058703028593e-01  4.9344069173682814e-01  3.9210823222008373e-01  2.4624132823770264e-01  5.3516944932949417e-01  5.4208559431881220e-01  5.2492773148920235e-01  5.4722344032561065e-01  2.5911118553172779e-01  2.4045032000606237e-01  5.7464176450823001e-01  2.5342592709374540e-01  6.9020175462396605e-01  2.4065384994209416e-01  2.4546177437735803e-01  6.4448504894281911e-01  2.3049829222203916e-01  5.5796283704772220e-01  4.8898809894180972e-01  5.4503981721232908e-01  5.1982697428650881e-01  4.9443662868369065e-01  5.1792142041791400e-01  5.3030676265579679e-01  5.2905664688751952e-01  5.1549171344383404e-01  5.3708117776521114e-01  5.2933260445085495e-01  2.2550082400790858e-01  2.2047169478679518e-01  2.2087790904465293e-01  2.2085451352225746e-01  4.8025377172270178e-01  6.2823155479760040e-01  4.2259368202755593e-01  4.6619560752950195e-01  2.2756599724450663e-01  2.3438469685628821e-01  6.6300015959180214e-01  5.1145116927892376e-01  6.6186451077664477e-01  4.8138888448086931e-01  5.2273611462765168e-01  6.5442452579369925e-01  2.2324816220062893e-01  5.0926517839248686e-01  5.4579862034858018e-01  5.2695555251877946e-01  5.3915563965735169e-01  4.5202358265706705e-01  5.3391211263391158e-01  4.5203070463526879e-01  4.7211998260208748e-01  6.2262468401701976e-01  2.0708345186247465e-01  5.1407538985912771e-01  2.2079710948281767e-01  2.2629905524827956e-01  4.9984448852959268e-01  5.2873906933482695e-01  5.2342780904838349e-01  5.4533310877769836e-01  2.1866223286251585e-01  5.4582507175083705e-01  5.1674287282727593e-01  5.7447084819907457e-01  5.2417364526922794e-01  5.2357751635680150e-01  5.5186084108225897e-01  6.3582265902740331e-01  5.5271642963961620e-01  5.1924070359009933e-01  2.1457422326989653e-01  4.5272633899907616e-01  6.1006142815288789e-01  5.2567418869888072e-01  5.1213085617247389e-01  5.4925042015875059e-01  4.6990157495768886e-01  4.5840389932441805e-01  2.1476070633724206e-01  2.1959492289643157e-01  2.0926128882228351e-01  5.4459808568879620e-01  4.5657617368404546e-01  5.4322665572733464e-01  5.3184501322353905e-01  2.0147355906928391e-01  6.0912909915687630e-01  4.5667792834661924e-01  4.3692502255395976e-01  4.4881877796636721e-01  5.3765356680238352e-01  6.7886076881128254e-01  5.2336359188595249e-01  6.3888995102347101e-01  5.7099863979396848e-01  5.7161063979912352e-01  6.4021896439991199e-01  6.1301817893864496e-01  5.8006148478494202e-01  1.9719003340351265e-01  5.4633841100890179e-01  5.5049918093486905e-01  5.4272363240793742e-01  6.4746038028637232e-01  2.8186011077266654e-01  5.4842710361417046e-01  2.1208874289874488e-01  5.1394964525364917e-01  6.0393788101551793e-01  5.5101994298574919e-01  6.1773638199107050e-01  2.5642093121644094e-01  6.6201411373553887e-01  6.0962624595405757e-01  5.2642464147365919e-01  5.5004263130414432e-01  4.2107171842763635e-01  6.1536509106447401e-01  5.0966921728236703e-01  5.2559390274147832e-01  2.0748433292469806e-01  2.5479458809339589e-01  4.4338384051306756e-01  5.4422558941839416e-01  6.1950040754027369e-01  5.1388750427564933e-01  5.2872075819366160e-01  1.8766268357748356e-01  5.3034625588510187e-01  5.4184913235223886e-01  2.0616979065350743e-01  5.1347288124892443e-01  5.7639086154684316e-01  1.9637651724448010e-01  1.9952835846591929e-01  5.2274118745044806e-01  5.5117288559486655e-01  5.3928128228595718e-01  5.4684998347524982e-01  4.3862884399422680e-01  5.1716787322468905e-01  1.8971472617894505e-01  1.8128075030767060e-01  4.1161972546568765e-01  5.2822598747827698e-01  6.2474040026803879e-01  5.7186440002022065e-01  5.9268091194254557e-01  5.3103135111807798e-01  6.4659137568038161e-01  4.4314764721811734e-01  1.9855622470969483e-01  6.7360710116457123e-01  1.8168148457956393e-01  6.0512538900804203e-01  5.4856068027600902e-01  5.5411857907614492e-01  4.0484754302039505e-01  5.1874785559244296e-01  4.2175851471283538e-01  5.3250624394194879e-01  3.8873327026492643e-01  2.0635844879459714e-01  5.8317404322910271e-01  3.9648746824461950e-01  5.7419358257158393e-01  3.3148262615153173e-01  5.7180977738413319e-01  1.8434369387089231e-01  5.1336450562082470e-01  6.1586621396628416e-01  6.4819180624533934e-01  5.3579839018036157e-01  1.9173404274770439e-01  4.7441745131398699e-01  6.3345241822148224e-01  4.6610770878024099e-01  5.4232377807719367e-01  5.5092641493323213e-01  5.6629431633145300e-01  5.6998144496904946e-01  1.8540157632027673e-01  1.7231372714022192e-01  2.7703255472366034e-01  2.6642063302974117e-01  5.3244755368837404e-01  5.4789064599295945e-01  3.8221461138280671e-01  5.4071293262926445e-01  1.8463215636123073e-01  5.2475015493262833e-01  3.5965734595107157e-01  5.2141849271776453e-01  1.7792685892944812e-01  4.4942853362227070e-01  4.2710316181661884e-01  6.2816116301002101e-01  6.8461507240313912e-01  5.1127700422697608e-01  5.1335532998538247e-01  5.5497492348011157e-01  1.7321170058763546e-01  1.6890431499803168e-01  5.3585529674934351e-01  5.5360530025852073e-01  5.1447623523826669e-01  5.3528907101025880e-01  5.6568291445597885e-01  1.7327880843432364e-01  1.5633831749627358e-01  3.7256656567603408e-01  5.8335960304752410e-01  2.6920564630749005e-01  5.1780300070577490e-01  5.2519557070616241e-01  5.6715495311004560e-01  5.2043556511709843e-01  5.1712982830045262e-01  5.0888337312113319e-01  5.4584485684498418e-01  5.1153546963682284e-01  5.1713002954714238e-01  6.1586293931030578e-01  5.7822797643896151e-01  6.0413206492766147e-01  3.7596052678029801e-01  5.4944280999381900e-01  1.6207276512674204e-01  1.5715794571682679e-01  4.1442514060840741e-01  5.4183137386916558e-01  5.1580614594075236e-01  1.6166151986476823e-01  4.3567438431183586e-01  1.5404742391501031e-01  6.2295911978929741e-01  5.2890876887779048e-01  1.7916933376133903e-01  5.2563705740175282e-01  6.6325994868539806e-01  6.6465243496393700e-01  6.6272423290918347e-01  2.1392541554884234e-01  3.5597707418253688e-01  3.7573953801762444e-01  5.3069113224480124e-01  4.2359998148078876e-01  5.4659950862344486e-01  5.5649396009295671e-01  1.5584779576946334e-01  5.4800901095796106e-01  5.9073502332672068e-01  5.5879779797032214e-01  5.4944024763828225e-01  1.5460952034825459e-01  1.5123475801508635e-01  1.7118601909501061e-01  4.2614607523838977e-01  5.2604196005951376e-01  2.1948130349787798e-01  5.1781477713845470e-01  5.6869535916321956e-01  5.4184102735614670e-01  1.5301257114890360e-01  5.5904654256382591e-01  5.4619437318121478e-01  5.1603985840184508e-01  5.4867551341242571e-01  6.0825801101399146e-01  5.5568761046778792e-01  5.4045245679835852e-01  6.1149180287870653e-01  5.7627007459043011e-01  6.1350128571091167e-01  6.4382392862557258e-01  6.0703206160290324e-01  5.4801353542500186e-01  5.2873888080744036e-01  5.4145585344581415e-01  6.2030579549042386e-01  6.4782744170099482e-01  6.4586022298954271e-01  5.2915716960473436e-01  5.8488208319974977e-01  5.2745589955848071e-01  4.2058893223014926e-01  4.3466534900576570e-01  6.5160202967054681e-01  4.6517459865068467e-01  4.3505378864500827e-01  3.4994657386909800e-01  1.4349620684002315e-01  3.6330811353275300e-01  5.4355629192790234e-01  5.1576230230790854e-01  1.5469768541573073e-01  1.7387049843428537e-01  5.3036625730655840e-01  1.4697884920363760e-01  5.3440630685463419e-01  5.3927608014651318e-01  5.0476950306068413e-01  4.7356401044987217e-01  5.1668779558367284e-01  1.5543830934707631e-01  4.1020736020996679e-01  1.4002648854201857e-01  6.6676060357840761e-01  6.4136055827140448e-01  1.6185452315990803e-01  4.9525198295274753e-01  5.1954804075999328e-01  3.4574718908306190e-01  1.4751512743692899e-01  1.5480547422401694e-01  1.4279780203818898e-01  3.5228295539448667e-01  5.4770696993730128e-01  5.2997909903108187e-01  1.4476176301142715e-01  1.4545236922123095e-01  5.2715952806353583e-01  4.1257170662200493e-01  4.0326166346893749e-01  6.5585996332451879e-01  6.7725792373696947e-01  6.7399332648223498e-01  6.2388691494786341e-01  5.6003599984056773e-01  5.3548606316181946e-01  5.3495230817077244e-01  5.2819106434656415e-01  3.4494006505296632e-01  5.4292038397050690e-01  4.5486660337600526e-01  3.7253597029488494e-01  3.3314665517309311e-01  3.5447294452505235e-01  3.7535522249994402e-01  1.4375862566137884e-01  5.7580313177950393e-01  5.3040227166031739e-01  5.1278678846283610e-01  4.6573127925616559e-01  3.3313717291247424e-01  3.6007377435445792e-01  5.5318537770271980e-01  5.4874794436271057e-01  5.7175921812004260e-01  5.2981439655352724e-01  4.5438147376803767e-01  5.6547178031098122e-01  5.2068919406265879e-01  1.5680455789455838e-01  6.0543903700619861e-01  4.7381292023616017e-01  5.5279256563353496e-01  5.6619300809688711e-01  5.3542324404617936e-01  5.1916535406122533e-01  5.5361600745338135e-01  4.5984622213982318e-01  5.3515790582448497e-01  6.4072459341788290e-01  3.1557714708845963e-01  1.3935224528058121e-01  4.9206650031297539e-01  5.4734768039799775e-01  6.7533959703372415e-01  5.3557602012219496e-01  5.3617745745819390e-01  3.4341877338737020e-01  4.8958544128567461e-01  5.2049499426755397e-01  3.5312379707629354e-01  5.5222603292395833e-01  4.5749428481099663e-01  3.1943934942551677e-01  5.5655694601146954e-01  4.4242097394024860e-01  3.3989584734305001e-01  4.9968835648308452e-01  3.2609277573392559e-01  5.2654313755638471e-01  1.3345876906993201e-01  1.4881059481235936e-01  3.1165659427473169e-01  5.4066358784445789e-01  5.4555155602715877e-01  5.1245790848398654e-01  6.6703598484841031e-01  5.3106124238280383e-01  5.3950269818926566e-01  6.3499457300629680e-01  4.3669032458008827e-01  5.4843463026595562e-01  3.4583802997153762e-01  5.3509477421792018e-01  2.9276865998967777e-01  1.4852442589012546e-01  3.3149043179256593e-01  3.7649707425858642e-01  3.6074599269179053e-01  6.6132824785882138e-01  3.6308764819158695e-01  1.4380796053539019e-01  1.4244283611755151e-01  5.2076372307222785e-01  4.6999689348903567e-01  5.4727831365302382e-01  3.1459128493074512e-01  6.3039156692754361e-01  6.3446889885075719e-01  5.4104690147663170e-01  6.7008142143619021e-01  1.2942312517812424e-01  5.2300222420113351e-01  6.6447750230125280e-01  6.7706541972146583e-01  3.7606384837559398e-01  6.1301821549667468e-01  5.2804551976951020e-01  5.9123833713230189e-01  5.3510633137632002e-01  5.2244099418346102e-01  4.7754920589388311e-01  5.1453856212688442e-01  5.2908273733546962e-01  5.1885821742938010e-01  5.9583035557198383e-01  1.8241159227868337e-01  3.3131794636691975e-01  5.0530790394048275e-01  4.9127557456411763e-01  4.8962377680583963e-01  5.0386956113274839e-01  6.3708545993938248e-01  5.2430428484775993e-01  6.5031355173278538e-01  5.6857871722667486e-01  5.3686184195358555e-01  5.2510392856467092e-01  6.0438588099652268e-01  5.3059923303212708e-01  6.4577812330716555e-01  6.1679627007295346e-01  5.8523249025100621e-01  5.5141255391907784e-01  5.6661839735789310e-01  5.4805050541558964e-01  6.2119898799229467e-01  5.2036742515976830e-01  5.0847344928163141e-01  5.3033248912917830e-01  5.1647062230089635e-01  5.2659297618483258e-01  6.2963699030282194e-01  1.2566756805095078e-01  1.5303980954948981e-01  5.5060045159360926e-01  6.5140358890913830e-01  5.6442649772764619e-01  5.4151879028319483e-01  5.4984631621295432e-01  5.4376976656555076e-01  5.3406183014056785e-01  5.5157824714018788e-01  5.2370398175860389e-01  5.5726744460573874e-01  1.2931512265687972e-01  5.4499048625985536e-01  6.7367068200753111e-01  6.2145410161589199e-01  2.3368568207424900e-01  1.4391999245366538e-01  4.3855914700407722e-01  1.4080151944973851e-01  3.2110985946114906e-01  5.2311982825427972e-01  5.2579764202770374e-01  5.2039830939436782e-01  5.8367609818453769e-01  1.3116615582888702e-01  3.5072591048525253e-01  1.4992712517580967e-01  1.2678864322297012e-01  6.7241598032956840e-01  1.4130909528896121e-01  5.3548015971518370e-01  5.2446696830483719e-01  5.2955373000995243e-01  3.0329042988881383e-01  3.0075577278238330e-01  5.4074592505634089e-01  5.4950784897115390e-01  5.3717501186715255e-01  5.5293541890101472e-01  5.5233673670627448e-01  5.6860998567771337e-01  4.7399060473707677e-01  1.8845181197023658e-01  5.4309121721718623e-01  5.7425677509454320e-01  5.6348050504363745e-01  6.0527786157309127e-01  5.3042880777007562e-01  5.2797089137193620e-01  5.3543260857614139e-01  4.0065257789407499e-01  5.4597547014593995e-01  4.8763500953478911e-01  5.6016467321129371e-01  1.5392603364096122e-01  5.2549821692581933e-01  6.5280720417539229e-01  6.7266166002986916e-01  4.8973600707117720e-01  5.9336162657237967e-01  1.2481422926250370e-01  5.7883472175125206e-01  4.4602396651969178e-01  5.5477431451148895e-01  5.1325897930070608e-01  3.1589553671709308e-01  4.7186171970631