<?xml version="1.0"?>
<VTKFile type="UnstructuredGrid"  version="0.1"  >
<UnstructuredGrid>
<Piece  NumberOfPoints="387" NumberOfCells="708">
<Points>
<DataArray  type="Float64"  NumberOfComponents="3"  format="ascii">0 3 0  0 -3 0  6 -3 0  6 3 0  3 -3 0  6 0 0  3 3 0  0 0 0  3 0 0  0 -1.5 0  1.5 -3 0  1.5 3 0  0 1.5 0  6 -1.5 0  4.5 -3 0  6 1.5 0  4.5 3 0  4.25 -1.25 0  1.75 1.25 0  2.25 -1.5 0  4.5 0.75 0  1.541666666666667 -0.2083333333333333 0  3.219827586206896 1.521551724137931 0  1.125 -1.875 0  4.875 1.875 0  0.8702651515151515 0.631628787878788 0  2.25 2.214285714285714 0  3.316176470588236 -1.904411764705882 0  5.214285714285714 -0.75 0  5.03125 -2.03125 0  0.96875 2.03125 0  4.041666666666667 -0.2083333333333333 0  0.8205128205128206 -0.9134615384615387 0  3.942582294752138 2.189194098250713 0  3.061487638533674 -0.968243819266837 0  2.192708333333333 0.4427083333333334 0  4.157850026972511 -2.182329047049442 0  2.331456616463011 -0.5285296485744057 0  3.654761904761905 0.5654761904761902 0  5.25 1.125 0  2.563673341677096 -2.280663329161452 0  5.126674107142857 0.1283482142857142 0  0.75 -3 0  0 -2.25 0  6 2.25 0  5.25 3 0  0.7680051888903191 -0.1384245958639337 0  1.617229471026718 -1.006949429867069 0  4.218940341429579 1.468686552856807 0  3.75 -3 0  2.25 -3 0  0.75 3 0  5.25 -3 0  6 -0.75 0  0 -0.75 0  0 0.75 0  2.25 3 0  6 -2.25 0  0 2.25 0  3.75 3 0  6 0.75 0  1.787573018358365 -2.279142327213878 0  3.195025188237337 2.273430909158844 0  2.528159645294386 1.151699106559287 0  1.041598427383826 1.322848427383826 0  1.520951704545454 0.4634232954545453 0  1.580357142857143 2.325892857142857 0  4.919642857142857 -1.361607142857143 0  4.54981623521892 -0.6483700862895494 0  2.99317863826574 0.6697091957925523 0  3.450169349029507 -0.4574865881858001 0  3.605016126014028 -1.323102984840902 0  2.745144658907412 1.882241931337371 0  0.4898065586600511 1.092777516238393 0  0.5 -1.875 0  1.217028489597945 -2.469323836800685 0  1.659912685567181 -1.604738056701542 0  5.4375 1.6875 0  5.34375 2.34375 0  4.52741779500503 2.384139265001677 0  3.375 -2.514804579549941 0  0.5446428571428571 -2.455357142857143 0  2.766554087216865 -1.745795909102064 0  4.525516559010988 0.1490283123570637 0  3.87554132162248 -0.8280516069565407 0  4.53622906132958 -1.76963146596888 0  0.4243951612903226 1.875 0  0.554851858345021 2.446861709948876 0  5.575604838709677 -1.875 0  5.445148141654979 -2.446861709948876 0  4.875 -2.575604838709677 0  1.440573466105381 1.721823466105381 0  2.193519495405082 1.631799415080963 0  5.472630128027442 -1.330813078900983 0  4.750126894286386 1.343813447143193 0  5.607142857142857 -0.375 0  2.625 2.607142857142857 0  0.3921763197810531 0.375 0  5.60901753622775 0.3750000000000001 0  1.125 2.613454943235572 0  3.701856738980915 1.163867513386733 0  3.736112850688509 1.696746876851408 0  3.519183195491339 0.06065128742606851 0  3.973620778217027 -1.693401606145563 0  0.8125 -1.444978632478633 0  1.256657745408029 -0.6381828923025001 0  0 -1.125 0  5.019997778514942 0.6475044429701156 0  4.125 3 0  1.285569332703024 0.8955310332120207 0  0 -0.375 0  0.4638922275641027 -0.5625 0  2.056635259780241 -0.07226025978024064 0  2.130475508371123 -1.000827820434028 0  2.677484372338113 -1.267299126394495 0  2.848680878891876 -0.4956836878192376 0  4.937901885089369 -0.3340245904575954 0  4.393563081308854 1.919544166973803 0  4.053859126323572 0.2813938488760716 0  1.181051704329518 0.1167440895674965 0  1.971354166666667 2.607142857142857 0  4.875 3 0  2.519350561152006 0.08093582719875507 0  3.139443301924015 -1.442524927271905 0  6 2.625 0  1.849169256239503 1.945480934753207 0  1.867196483071171 0.7892354369530077 0  1.192506522009051 -1.184888428863342 0  3.375 3 0  3.603234392481833 2.536866305538572 0  3.846752908916648 -2.537707634073423 0  2.014339897513945 -1.886932065281681 0  4.038392037966526 0.8363324773944992 0  4.421242701722609 -2.552534687860327 0  3.715389848650903 -2.108856956172843 0  2.985668138820625 1.127780908772207 0  0.4500794934449803 -1.173696061598557 0  3.366760888116476 0.8891914618875614 0  1.869163043700093 -0.6107175804171328 0  2.175114838273305 -2.53928723780967 0  3.014417665538299 -2.241523065744933 0  2.625 -3 0  2.819968145332426 -2.617202329573456 0  5.625 1.3125 0  5.563263538826679 0.814027077653358 0  5.625 3 0  2.550041671270923 0.7074928970804664 0  4.014583091741168 2.59891853892166 0  0.6440729668673318 1.499523832583132 0  5.219449799568244 -1.660557808485412 0  3.474012636702472 -0.9300738420779746 0  0.8125 -2.142857142857143 0  1.875 -3 0  4.945010515846405 2.554471797033147 0  2.611388969012422 -0.8478354915063726 0  3.223746055611014 0.3371683159691745 0  4.843939757110898 -0.9483610977948225 0  4.66556954816842 -2.220888354477256 0  4.125 -3 0  4.448108395110625 -0.2524000502731018 0  5.63671875 2.05078125 0  2.822484133964224 1.491327727709286 0  3.378213092764193 1.903125093887009 0  5.607142857142858 -0.9231200445788541 0  2.12639693023183 1.100450516019641 0  5.625 -3 0  0.375 3 0  0 2.625 0  6 -2.625 0  0.3931307155906299 -0.01856779822591927 0  0.7651723094668359 0.253768144801553 0  0.8549199714190221 -0.5218333744252657 0  1.421989550604507 -2.133299471886336 0  1.582611957351803 -2.615166692128227 0  4.420331038793115 1.133144382396504 0  0.375 -3 0  0 -2.625 0  5.078156723571596 1.54697017071479 0  1.877250715260938 -1.288801575378032 0  2.409169073010687 -1.916147168931784 0  1.146151077069952 -0.268000681695328 0  1.726784828652036 0.1335728643263411 0  2.745628549924675 0.3838821021397905 0  3.011490900297165 2.613625569196862 0  5.62463365164608 -4.137655439684362e-05 0  1.875 3 0  1.125 3 0  6 0.375 0  2.625 3 0  6 -1.125 0  6 -0.375 0  4.875 -3 0  6 -1.875 0  3.375 -3 0  1.125 -3 0  0 -1.875 0  0 0.375 0  0 1.125 0  0 1.875 0  6 1.125 0  6 1.875 0  4.813017731148975 0.9677363687196439 0  2.807371623148303 2.264962208227767 0  0.3692953377255688 0.7436406761680247 0  5.615625 2.615625 0  0.9395725521479794 0.9812935874921043 0  1.390920759130215 1.238984550166515 0  0.9588795022085095 1.672288500195331 0  0.87712392565124 -2.641031728267331 0  0.3665732993114588 -1.532068934251388 0  1.841944504733106 1.591700334213738 0  4.832970185136452 0.3385359233091246 0  4.169083540479082 -0.5746148619765254 0  5.281697083409333 -0.2046640461936881 0  4.072845380968044 1.784516523483641 0  1.293029195762321 -1.543079049035419 0  4.878733886054284 -1.720697370582964 0  3.609167475697567 -1.687579152754035 0  4.836981942878573 2.222259978217028 0  4.204938267037067 -0.9128589669335569 0  5.183079748175263 -1.111742407358677 0  1.22880920402559 2.273525645756405 0  1.469404041858679 2.654509729682302 0  4.566761045622856 -1.414165869120005 0  4.531680518427715 1.606803989975667 0  1.918929241273175 2.27471131819245 0  3.526908551984126 2.207147627530056 0  1.85683899811842 0.4533569963423589 0  1.173935704088662 0.4636872214645547 0  2.116602160898525 -2.207718541460878 0  4.51821874648995 -1.042568353750147 0  2.721551512787618 -0.1859357475290837 0  5.294921875 2.001953125 0  5.288671874999999 2.670703125 0  2.199940744527116 0.7756512213396931 0  4.090519467638897 1.163401080812838 0  2.298177083333333 2.670581371753247 0  2.484362362207526 -2.687319997637033 0  3.300530569898859 1.207053005217563 0  3.936078051808127 -1.362164062673065 0  5.341218841330105 0.5689885832563615 0  4.226314635599414 0.5638853401248238 0  2.524510956818563 1.635483567726497 0  0.3219546452225031 1.389066019009203 0  3.139061555368706 -0.3133905221155423 0  3.145569907612562 -0.6461828528638952 0  3.701427442033566 -0.2272880199383185 0  1.686782510365738 -1.934662341426927 0  2.427696494631844 1.944064773844184 0  3.901817839425732 1.422433381251312 0  2.356489883772755 -0.2025512972825912 0  4.820757576351118 -0.01647699434507374 0  3.064415631228375 1.809719380809516 0  4.643002705009462 2.69782572459795 0  4.31624250429496 2.728112685900672 0  1.520100694408069 -1.314302747998057 0  3.754559308601717 -0.5375020107416889 0  0.25 -2.0625 0  0.8125 -1.826636904761905 0  4.861738621091127 -0.6367294570749906 0  1.545149590740081 2.015832101819233 0  3.857113324620078 0.04127675193819436 0  0.2479605082936806 -0.9375 0  4.21293081604216 2.352874368135467 0  3.123697687162562 -2.708090473740421 0  3.415275466010259 -2.202892416689829 0  3.601103065320932 -2.727566580522146 0  1.558629964945672 -0.5289921609136927 0  3.324859026263307 -1.198136798699183 0  2.424350759683917 -1.092246517929194 0  2.746461744851735 0.9398108087856579 0  0.8882026075771248 2.364936378889839 0  0.8066140242673685 2.679750706449505 0  4.504454978490482 0.4491616076730165 0  4.26881784709759 -0.009649566552704852 0  1.3125 -2.75919801263958 0  1.120577805361368 -2.179971784090952 0  3.734048623985226 0.8602850349907256 0  3.527828882622877 1.432983527791925 0  1.959527908877504 -1.578124930685265 0  0.7602573574724077 1.220872343399509 0  0.6691217533356228 0.8531987603309893 0  1.877213035764122 -2.564340152892596 0  3.32172153715047 2.685939810104955 0  4.285565286275464 -1.569057178671076 0  4.227521511146333 -1.876903861267543 0  5.34375 1.40625 0  5.71875 1.59375 0  1.56245959534423 0.766197796710638 0  0.2458241530773257 2.4375 0  0.2794123857609179 2.138568368155198 0  5.754175846922674 -2.4375 0  5.720587614239082 -2.138568368155198 0  0.6472458227887359 2.124973059628837 0  5.124241021325378 -2.352544055105642 0  5.189172233440652 -2.675873509996353 0  5.364643151640443 -2.12768524739804 0  2.298896485720138 1.348573610321417 0  0.6008689899200503 -2.745193425346304 0  0.307092513690391 -2.651812055231556 0  0.2683745826107009 -2.363146293324415 0  0.5223214285714285 -2.165178571428571 0  0.3925308914031174 2.699891746740618 0  5.607469108596883 -2.699891746740618 0  2.138365140930822 1.917102089073091 0  1.25507379660067 1.953406658386351 0  4.135759889512124 -2.476847355718572 0  0.5330865684534913 -0.8980875812659357 0  2.548249345531056 -1.538893887888457 0  2.67686064875775
[...]
<PointData  Scalars="f_30-2"> 
<DataArray  type="Float64"  Name="f_30-2"  format="ascii">1.0000000000000000e+01  0.0000000000000000e+00  0.0000000000000000e+00  1.0000000000000000e+01  0.0000000000000000e+00  5.0043702412015669e+00  1.0000000000000000e+01  5.0043702412015669e+00  5.0043823880756237e+00  2.5030898011513156e+00  0.0000000000000000e+00  1.0000000000000000e+01  7.5030936147454295e+00  2.5030898011513156e+00  0.0000000000000000e+00  7.5030936147454295e+00  1.0000000000000000e+01  2.9201293960638517e+00  7.0868172655927753e+00  2.5030974667099266e+00  6.2540429730134557e+00  4.6571257123390124e+00  7.5389861797773801e+00  1.8774242552974072e+00  8.1274366255476203e+00  6.0568565685385325e+00  8.6922330920140762e+00  1.8283463704676144e+00  3.7540447195836375e+00  1.6167045910853057e+00  8.3875465451979530e+00  4.6571240801589155e+00  3.4814426432278016e+00  8.6504669586374536e+00  3.3900741716306451e+00  5.7421065722171063e+00  1.3645980159787758e+00  4.1233216398853019e+00  5.9466465164955533e+00  6.8786417105297293e+00  1.2005005907039232e+00  5.2182789468646611e+00  0.0000000000000000e+00  1.2516724049183037e+00  8.7516780000023431e+00  1.0000000000000000e+01  4.7736537216536208e+00  3.3255304541892063e+00  7.4509630888307239e+00  0.0000000000000000e+00  0.0000000000000000e+00  1.0000000000000000e+01  0.0000000000000000e+00  3.7540389778605907e+00  3.7540389778605907e+00  6.2540418497592443e+00  1.0000000000000000e+01  1.2516724049183037e+00  8.7516780000023431e+00  1.0000000000000000e+01  6.2540418497592443e+00  1.2030391454151554e+00  8.7906811694520481e+00  6.9231130144434303e+00  7.2081227525440887e+00  5.7766249845931688e+00  8.8780065734734617e+00  2.7339625376259367e+00  3.9235103932549280e+00  6.1202966680968753e+00  4.2417750209090643e+00  2.7981895428946300e+00  8.1394932410793022e+00  6.8249856482451614e+00  1.8774260452498175e+00  8.8565717124695242e-01  2.3283545313173262e+00  7.8152835905729043e+00  8.9077249583119151e+00  8.9749570425997938e+00  8.0975483546264115e-01  9.0896466090617989e-01  2.0930056029713593e+00  5.2527454247936314e+00  3.6238742142870572e+00  2.0532361263785974e+00  8.1274372770182630e+00  9.0793554170894968e+00  1.8774226775247742e+00  9.2314097236602111e-01  7.0828888342771179e-01  7.8724250639433064e+00  7.7225440766036124e+00  2.7853327102834347e+00  7.2430295129394286e+00  4.3792881393620959e+00  9.3461329841214020e+00  5.6292996951700358e+00  5.6292927170270746e+00  9.3566404496706248e+00  6.9433665404119544e+00  7.8306744869099658e+00  5.1054591874662973e+00  2.1804240242126758e+00  2.5948761642066369e+00  3.9404889297651469e+00  3.1286332930442633e+00  6.0833061603742848e+00  1.0000000000000000e+01  6.4964675542610646e+00  4.3792916292604858e+00  4.0666832667018671e+00  4.8839384273554449e+00  3.3357396515858468e+00  2.8912832336422474e+00  4.1780885830139241e+00  4.4475994214901817e+00  8.2015976322361794e+00  5.4733165698068991e+00  5.1989458244955165e+00  9.3461358742047924e+00  1.0000000000000000e+01  5.1392632892339192e+00  2.5989881825252024e+00  9.3758558846458548e+00  8.2447701963810598e+00  6.3194112742909008e+00  3.0287472667092774e+00  1.0000000000000000e+01  9.2291634312999342e+00  7.7153432094308760e-01  1.8575164610467778e+00  6.3978534682245574e+00  7.4679057667275728e-01  1.4872050600375408e+00  6.8832793041351596e+00  3.0474093647947607e+00  6.4859030523740415e+00  3.9862915105870251e+00  7.6889726123258550e-01  1.2658206032085411e+00  0.0000000000000000e+00  6.3886635625922750e-01  7.1908907552592023e+00  6.3607151299534888e+00  1.0000000000000000e+01  6.1832415823474420e+00  9.3324454515730864e+00  7.5023043982923170e+00  2.2352237088260396e+00  3.4537457487248666e+00  1.4304671145225731e+00  0.0000000000000000e+00  9.2584660360781150e+00  3.5908961679131397e+00  5.5662528954490735e+00  3.4232400931739821e+00  1.3002511818837159e+00  0.0000000000000000e+00  4.5836730380551680e+00  8.4200636378040024e+00  7.4886619759382107e+00  8.1742602446733574e+00  3.4653317478241212e+00  6.8377537040691427e+00  0.0000000000000000e+00  1.0000000000000000e+01  9.3758558846458548e+00  6.2585036325688759e-01  4.9734287666854033e+00  5.4272881832095372e+00  4.1344971518823659e+00  1.4464179429559378e+00  6.4226388840509885e-01  6.8922143776796307e+00  0.0000000000000000e+00  6.2585036325688759e-01  7.5813104982732078e+00  2.8554051210875468e+00  1.8087686951230202e+00  4.5576662015264269e+00  5.2269938126496163e+00  5.6440954931862439e+00  9.3569243241721569e+00  5.0043086486800732e+00  1.0000000000000000e+01  1.0000000000000000e+01  5.6292989939958824e+00  1.0000000000000000e+01  3.1286332930442633e+00  4.3792916292604858e+00  0.0000000000000000e+00  1.8774254622510838e+00  0.0000000000000000e+00  0.0000000000000000e+00  1.8774254622510838e+00  5.6292989939958824e+00  6.8786475585677271e+00  8.1274391111529258e+00  6.8786475585677271e+00  8.1274391111529258e+00  6.6167243192239704e+00  8.7765861626977557e+00  6.2434445787940094e+00  9.3602535082269451e+00  6.6393033689516816e+00  7.0684618618806248e+00  7.7899547401712752e+00  5.9909650819742866e-01  2.4495888564859754e+00  7.6557806827350507e+00  5.5685380840050955e+00  4.0464851049982613e+00  4.6632482182872801e+00  7.9768006429393221e+00  2.4312206663495926e+00  2.1348825583467170e+00  2.1901411252086369e+00  8.7055042039195776e+00  3.4824486600776607e+00  3.1507452626861401e+00  8.7908377195625391e+00  9.4249735947379936e+00  2.6462818703451227e+00  7.6809334451128928e+00  8.7928100902791684e+00  8.6803473646353382e+00  5.7598468774532918e+00  5.7770633976312142e+00  1.3222295279335008e+00  3.2661222165756096e+00  4.6944498573523683e+00  8.3387786248421119e+00  9.4519252305738615e+00  6.2967807963919276e+00  6.9425941284016481e+00  9.4517222176731721e+00  5.2184445860153172e-01  7.0152872763711915e+00  2.7330309678592286e+00  5.9524877093901312e+00  5.9439960073865086e+00  7.7286830962994690e+00  7.3183901842106227e+00  4.4819936257038941e+00  3.9271531074086719e+00  4.6255260296701115e+00  1.7778725952017898e+00  8.2424074887400014e+00  7.3739438001333149e+00  4.6667650653183230e+00  4.9769084444173819e+00  8.0187569663440499e+00  9.4970668158136125e+00  9.5474768237916283e+00  2.8128635392415564e+00  4.1083706130977387e+00  1.5645550007951172e+00  1.9581182312054073e+00  3.9429117475108333e+00  8.3618786234481117e+00  5.0731632329091552e+00  3.4413580184823469e+00  8.9229173418816696e+00  4.8718021795962196e-01  1.3302812910852064e+00  4.5467588339865583e-01  4.1225463423074302e+00  3.0066432944074819e+00  3.1832612745411293e+00  6.5702073465677522e+00  8.9429920326078847e+00  9.4669827895188430e+00  5.7528549148736250e+00  4.9882890403555749e+00  4.0188435311977161e-01  1.3685299890153815e+00  6.4377537060053180e+00  7.3915174357488640e+00  2.3727540784077754e+00  7.0383032144636175e+00  6.4259508967802903e+00  7.2708722875015597e-01  9.4772848335745312e+00  2.3878784350118831e+00  1.8742456538627812e+00  7.3469925580542341e+00  7.6591962253126358e+00  6.2810263332985699e+00  9.0637744056361882e+00  8.5661894978072883e+00  9.3876628008200291e-01  1.4376218369128984e+00  8.5435616285721228e+00  1.0805421251772207e+00  5.4094863506759305e-01  1.4557877610482037e+00  7.2509569097409265e+00  4.2525786492167167e-01  5.8110486144397988e-01  1.0628523945646908e+00  1.3932147404252315e+00  9.5005056656776699e+00  5.0086397826126972e-01  8.1975272301815387e+00  8.2579639092697050e+00  8.7310061929172889e-01  3.5070849522871614e+00  2.4382081848664097e+00  1.6393336560574219e+00  1.7791068534974595e+00  7.9709148398937524e+00  5.9116914815383348e+00  5.9969734605912883e+00  4.5058459771064436e+00  7.2749984689542453e+00  2.3825094926857258e+00  7.7712236661403837e+00  3.5414453990042266e-01  3.0261627672707276e+00  8.8957701655126158e+00  1.9282063430238243e+00  7.5837059809067719e+00  7.4665738840007450e+00  3.2275409957317049e+00  6.3994859799920789e+00  5.3603155285303776e+00  1.7105558680056445e+00  5.4748757676241624e+00  8.8876077542367700e+00  1.5325933111477710e+00  5.6021841343552916e+00  8.2674193688951085e+00  3.5058592674258624e+00  2.6932257906159291e+00  3.4374545415827751e-01  4.1896480737102344e+00  4.5391584046487035e+00  3.9223537214665218e+00  2.8158737205431663e+00  1.0220820364143248e+00  5.1029454979703477e+00  7.6852575766598932e+00  6.9852068181773070e+00  1.7214754244556403e+00  9.6730689026838856e+00  5.9584471758318100e+00  5.3168539989880319e+00  5.4943630696569663e+00  5.9416947422144837e+00  4.2792844425419592e+00  4.3967368169283128e-01  8.3782366701012219e+00  3.2988744231718925e-01  6.5663642295291824e+00  4.6952776186794267e+00  9.6825962242286021e+00  3.0403719386830308e+00  2.2765095509933104e+00  2.2765147351340529e+00  9.6781802190201880e+00  6.5663659728380939e+00  4.5897636642556394e+00  5.3298397009348966e+00  4.6772168458817722e+00  9.6726963847848637e+00  6.1833943579820465e+00  5.6596310057421073e+00  2.2854173783922285e+00  9.6855347180515139e+00  8.3932617302312966e+00  3.1816543151552095e+00  8.4630172623130644e+00  5.0746294974415189e+00  5.9172990537452792e+00  1.0136956236400818e+00  8.6731382658085767e+00  5.2984312045742499e+00  4.3690033347896051e+00  6.7352459522659833e+00  3.7455834534296399e+00  3.7018252823261908e+00  3.2857966341041558e+00  2.8986246074563304e+00  3.6563678709243810e+00  3.0337602005096072e+00  3.8263979701966200e+00  </DataArray> 
</PointData> 
</Piece>
</UnstructuredGrid>
</VTKFile>