<?xml version="1.0"?>
<VTKFile type="UnstructuredGrid"  version="0.1"  >
<UnstructuredGrid>
<Piece  NumberOfPoints="18071" NumberOfCells="35544">
<Points>
<DataArray  type="Float64"  NumberOfComponents="3"  format="ascii">0.9486832980505138 0 0  0.9484724340806782 0.02000104469955538 0  0.9478399359086995 0.03999319812908447 0  0.9467860847054931 0.0599675729710886 0  0.9453113489503684 0.07991528981136745 0  0.9434163842227721 0.09982748108627622 0  0.9411020329108563 0.119695295024715 0  0.938369323837003 0.1395098995830973 0  0.9352194718004709 0.1592624863715497 0  0.931653877037369 0.1789442745695953 0  0.9276741245981944 0.1985465148295827 0  0.9232819836432135 0.2180604931661231 0  0.9184794066559997 0.2374775348298079 0  0.9132685285754754 0.2567890081634844 0  0.9076516658468453 0.2759863284393749 0  0.9016313153918442 0.2950609616753339 0  0.8952101534987531 0.3140044284285474 0  0.8883910346326832 0.3328083075649862 0  0.8811769901666499 0.3514642400029395 0  0.873571227034005 0.3699639324289635 0  0.8655771263028276 0.3882991609845931 0  0.8571982416729006 0.4064617749221782 0  0.8484382978959503 0.4244437002282196 0  0.8393011891198424 0.4422369432125932 0  0.829790977157478 0.459833594062067 0  0.8199118896811526 0.477225830356532 0  0.8096683183431869 0.4944059205463824 0  0.7990648168236594 0.5113662273895018 0  0.7881060988061126 0.5280992113463244 0  0.7767970358821309 0.5445974339314641 0  0.7651426553857218 0.5608535610204205 0  0.753148138158463 0.5768603661098937 0  0.7408188162464108 0.5926107335302548 0  0.7281601705297891 0.6080976616087488 0  0.7151778282865192 0.6233142657820195 0  0.7018775606906669 0.6382537816565753 0  0.6882652802469232 0.652909568015835 0  0.6743470381622587 0.6672751097724156 0  0.6601290216559174 0.6813440208643511 0  0.6456175512089487 0.6951100470939552 0  0.6308190777544996 0.7085670689080622 0  0.6157401798101144 0.7217091041184169 0  0.6003875605533189 0.734530310560997 0  0.584768044841788 0.7470249886930909 0  0.5688885761794213 0.7591875841269735 0  0.5527562136296766 0.7710126900990562 0  0.5363781286775311 0.7824950498734097 0  0.5197616020414676 0.7936295590785962 0  0.5029140204369025 0.8044112679767674 0  0.4858428732924924 0.8148353836640227 0  0.4685557494207815 0.8248972722010478 0  0.4510603336446699 0.8345924606730875 0  0.4333644033811983 0.8439166391783361 0  0.4154758251841748 0.8528656627438631 0  0.3974025512471733 0.8614355531682203 0  0.379152615868464 0.8696225007899122 0  0.3607341318794444 0.8774228661809444 0  0.342155287038158 0.8848331817646961 0  0.3234243403895067 0.8918501533573969 0  0.3045496185937731 0.898470661632525 0  0.2855395122250832 0.904691763507473 0  0.2664024720414594 0.9105106934518669 0  0.2471470052281184 0.915924864716955 0  0.2277816716156831 0.9209318704855235 0  0.2083150798749952 0.925529484941822 0  0.1887558836902123 0.9297156642610294 0  0.1691127779118977 0.9334885475178156 0  0.1493944946918097 0.9368464575135985 0  0.1296097996011066 0.9397879015221259 0  0.1097674877336993 0.9423115719530522 0  0.08987637979647611 0.9444163469332154 0  0.06994531818814397 0.9461012908053551 0  0.04998316306842656 0.9473656545440494 0  0.02999878841936526 0.9482088760886865 0  0.01000107810047723 0.9486305805933245 0  -0.01000107810047732 0.9486305805933245 0  -0.02999878841936514 0.9482088760886865 0  -0.04998316306842644 0.9473656545440494 0  -0.06994531818814406 0.9461012908053551 0  -0.08987637979647599 0.9444163469332155 0  -0.1097674877336992 0.9423115719530522 0  -0.1296097996011065 0.9397879015221259 0  -0.1493944946918096 0.9368464575135985 0  -0.1691127779118979 0.9334885475178156 0  -0.1887558836902122 0.9297156642610294 0  -0.2083150798749951 0.925529484941822 0  -0.227781671615683 0.9209318704855235 0  -0.247147005228118 0.9159248647169551 0  -0.2664024720414591 0.9105106934518669 0  -0.2855395122250831 0.904691763507473 0  -0.3045496185937729 0.8984706616325251 0  -0.3234243403895066 0.8918501533573969 0  -0.3421552870381577 0.8848331817646962 0  -0.3607341318794441 0.8774228661809446 0  -0.3791526158684641 0.8696225007899122 0  -0.3974025512471734 0.8614355531682203 0  -0.4154758251841746 0.8528656627438632 0  -0.4333644033811984 0.8439166391783361 0  -0.4510603336446696 0.8345924606730876 0  -0.4685557494207815 0.8248972722010479 0  -0.4858428732924923 0.8148353836640227 0  -0.5029140204369026 0.8044112679767673 0  -0.5197616020414676 0.7936295590785962 0  -0.536378128677531 0.7824950498734098 0  -0.5527562136296768 0.7710126900990562 0  -0.5688885761794211 0.7591875841269737 0  -0.5847680448417879 0.747024988693091 0  -0.6003875605533187 0.7345303105609973 0  -0.6157401798101142 0.721709104118417 0  -0.6308190777544995 0.7085670689080623 0  -0.6456175512089487 0.6951100470939551 0  -0.6601290216559171 0.6813440208643513 0  -0.6743470381622587 0.6672751097724156 0  -0.688265280246923 0.6529095680158352 0  -0.7018775606906668 0.6382537816565753 0  -0.7151778282865192 0.6233142657820195 0  -0.7281601705297891 0.6080976616087488 0  -0.7408188162464107 0.592610733530255 0  -0.753148138158463 0.5768603661098938 0  -0.7651426553857216 0.5608535610204208 0  -0.7767970358821308 0.5445974339314642 0  -0.7881060988061125 0.5280992113463245 0  -0.7990648168236594 0.5113662273895018 0  -0.8096683183431868 0.4944059205463825 0  -0.8199118896811526 0.477225830356532 0  -0.8297909771574777 0.4598335940620675 0  -0.8393011891198424 0.4422369432125932 0  -0.8484382978959502 0.4244437002282198 0  -0.8571982416729006 0.4064617749221782 0  -0.8655771263028273 0.3882991609845933 0  -0.873571227034005 0.3699639324289636 0  -0.8811769901666499 0.3514642400029395 0  -0.8883910346326833 0.332808307564986 0  -0.8952101534987531 0.3140044284285475 0  -0.9016313153918442 0.295060961675334 0  -0.9076516658468452 0.2759863284393752 0  -0.9132685285754755 0.2567890081634842 0  -0.9184794066559997 0.237477534829808 0  -0.9232819836432135 0.218060493166123 0  -0.9276741245981943 0.1985465148295829 0  -0.931653877037369 0.1789442745695954 0  -0.9352194718004709 0.15926248637155 0  -0.938369323837003 0.1395098995830971 0  -0.9411020329108563 0.1196952950247151 0  -0.9434163842227721 0.09982748108627618 0  -0.9453113489503684 0.07991528981136768 0  -0.9467860847054931 0.05996757297108869 0  -0.9478399359086995 0.03999319812908442 0  -0.9484724340806782 0.02000104469955522 0  -0.9486832980505138 1.161801964362116e-16 0  -0.9484724340806782 -0.02000104469955541 0  -0.9478399359086995 -0.0399931981290842 0  -0.9467860847054931 -0.05996757297108847 0  -0.9453113489503684 -0.07991528981136745 0  -0.9434163842227721 -0.09982748108627594 0  -0.9411020329108563 -0.1196952950247148 0  -0.938369323837003 -0.1395098995830973 0  -0.935219471800471 -0.1592624863715494 0  -0.9316538770373691 -0.1789442745695952 0  -0.9276741245981944 -0.1985465148295827 0  -0.9232819836432136 -0.2180604931661228 0  -0.9184794066559998 -0.2374775348298077 0  -0.9132685285754755 -0.256789008163484 0  -0.9076516658468454 -0.2759863284393745 0  -0.9016313153918442 -0.2950609616753337 0  -0.8952101534987533 -0.3140044284285469 0  -0.8883910346326832 -0.3328083075649862 0  -0.8811769901666497 -0.3514642400029397 0  -0.8735712270340051 -0.3699639324289634 0  -0.8655771263028275 -0.3882991609845931 0  -0.8571982416729007 -0.406461774922178 0  -0.8484382978959503 -0.4244437002282196 0  -0.8393011891198425 -0.4422369432125929 0  -0.8297909771574781 -0.4598335940620669 0  -0.8199118896811529 -0.4772258303565314 0  -0.8096683183431871 -0.494405920546382 0  -0.7990648168236597 -0.5113662273895012 0  -0.7881060988061124 -0.5280992113463246 0  -0.7767970358821309 -0.544597433931464 0  -0.7651426553857217 -0.5608535610204206 0  -0.7531481381584632 -0.5768603661098936 0  -0.7408188162464108 -0.5926107335302547 0  -0.7281601705297893 -0.6080976616087486 0  -0.7151778282865193 -0.6233142657820193 0  -0.7018775606906672 -0.638253781656575 0  -0.6882652802469235 -0.6529095680158347 0  -0.674347038162259 -0.6672751097724151 0  -0.660129021655917 -0.6813440208643514 0  -0.6456175512089486 -0.6951100470939552 0  -0.6308190777544994 -0.7085670689080624 0  -0.6157401798101141 -0.7217091041184172 0  -0.6003875605533191 -0.7345303105609969 0  -0.5847680448417881 -0.7470249886930909 0  -0.5688885761794213 -0.7591875841269736 0  -0.5527562136296765 -0.7710126900990563 0  -0.5363781286775317 -0.7824950498734093 0  -0.519761602041468 -0.7936295590785959 0  -0.5029140204369028 -0.8044112679767672 0  -0.4858428732924925 -0.8148353836640226 0  -0.4685557494207817 -0.8248972722010478 0  -0.4510603336446699 -0.8345924606730875 0  -0.4333644033811982 -0.8439166391783361 0  -0.4154758251841745 -0.8528656627438633 0  -0.3974025512471736 -0.8614355531682203 0  -0.3791526158684643 -0.8696225007899121 0  -0.3607341318794445 -0.8774228661809444 0  -0.342155287038158 -0.8848331817646962 0  -0.3234243403895075 -0.8918501533573966 0  -0.3045496185937727 -0.8984706616325251 0  -0.2855395122250827 -0.9046917635074732 0  -0.2664024720414597 -0.9105106934518667 0  -0.2471470052281185 -0.915924864716955 0  -0.2277816716156832 -0.9209318704855235 0  -0.2083150798749951 -0.925529484941822 0  -0.1887558836902128 -0.9297156642610293 0  -0.1691127779118983 -0.9334885475178155 0  -0.14939449469181 -0.9368464575135985 0  -0.1296097996011069 -0.9397879015221258 0  -0.1097674877336994 -0.942311571953052 0  -0.08987637979647602 -0.9444163469332154 0  -0.06994531818814387 -0.9461012908053551 0  -0.04998316306842625 -0.9473656545440494 0  -0.02999878841936558 -0.9482088760886865 0  -0.01000107810047755 -0.9486305805933245 0  0.0100010781004772 -0.9486305805933245 0  0.02999878841936524 -0.9482088760886865 0  0.04998316306842591 -0.9473656545440494 0  0.06994531818814352 -0.9461012908053552 0  0.08987637979647567 -0.9444163469332155 0  0.1097674877336991 -0.9423115719530522 0  0.1296097996011066 -0.9397879015221259 0  0.1493944946918097 -0.9368464575135985 0  0.1691127779118979 -0.9334885475178156 0  0.1887558836902125 -0.929715
[...]
<PointData  Scalars="f_29-2"> 
<DataArray  type="Float64"  Name="f_29-2"  format="ascii">0.0000000000000000e+00  0.0000000000000000e+00  0.0000000000000000e+00  0.0000000000000000e+00  0.0000000000000000e+00  0.0000000000000000e+00  0.0000000000000000e+00  0.0000000000000000e+00  0.0000000000000000e+00  0.0000000000000000e+00  0.0000000000000000e+00  0.0000000000000000e+00  0.0000000000000000e+00  0.0000000000000000e+00  0.0000000000000000e+00  0.0000000000000000e+00  0.0000000000000000e+00  0.0000000000000000e+00  0.0000000000000000e+00  0.0000000000000000e+00  0.0000000000000000e+00  0.0000000000000000e+00  0.0000000000000000e+00  0.0000000000000000e+00  0.0000000000000000e+00  0.0000000000000000e+00  0.0000000000000000e+00  0.0000000000000000e+00  0.0000000000000000e+00  0.0000000000000000e+00  0.0000000000000000e+00  0.0000000000000000e+00  0.0000000000000000e+00  0.0000000000000000e+00  0.0000000000000000e+00  0.0000000000000000e+00  0.0000000000000000e+00  0.0000000000000000e+00  0.0000000000000000e+00  0.0000000000000000e+00  0.0000000000000000e+00  0.0000000000000000e+00  0.0000000000000000e+00  0.0000000000000000e+00  0.0000000000000000e+00  0.0000000000000000e+00  0.0000000000000000e+00  0.0000000000000000e+00  0.0000000000000000e+00  0.0000000000000000e+00  0.0000000000000000e+00  0.0000000000000000e+00  0.0000000000000000e+00  0.0000000000000000e+00  0.0000000000000000e+00  0.0000000000000000e+00  0.0000000000000000e+00  0.0000000000000000e+00  0.0000000000000000e+00  0.0000000000000000e+00  0.0000000000000000e+00  0.0000000000000000e+00  0.0000000000000000e+00  0.0000000000000000e+00  0.0000000000000000e+00  0.0000000000000000e+00  0.0000000000000000e+00  0.0000000000000000e+00  0.0000000000000000e+00  0.0000000000000000e+00  0.0000000000000000e+00  0.0000000000000000e+00  0.0000000000000000e+00  0.0000000000000000e+00  0.0000000000000000e+00  0.0000000000000000e+00  0.0000000000000000e+00  0.0000000000000000e+00  0.0000000000000000e+00  0.0000000000000000e+00  0.0000000000000000e+00  0.0000000000000000e+00  0.0000000000000000e+00  0.0000000000000000e+00  0.0000000000000000e+00  0.0000000000000000e+00  0.0000000000000000e+00  0.0000000000000000e+00  0.0000000000000000e+00  0.0000000000000000e+00  0.0000000000000000e+00  0.0000000000000000e+00  0.0000000000000000e+00  0.0000000000000000e+00  0.0000000000000000e+00  0.0000000000000000e+00  0.0000000000000000e+00  0.0000000000000000e+00  0.0000000000000000e+00  0.0000000000000000e+00  0.0000000000000000e+00  0.0000000000000000e+00  0.0000000000000000e+00  0.0000000000000000e+00  0.0000000000000000e+00  0.0000000000000000e+00  0.0000000000000000e+00  0.0000000000000000e+00  0.0000000000000000e+00  0.0000000000000000e+00  0.0000000000000000e+00  0.0000000000000000e+00  0.0000000000000000e+00  0.0000000000000000e+00  0.0000000000000000e+00  0.0000000000000000e+00  0.0000000000000000e+00  0.0000000000000000e+00  0.0000000000000000e+00  0.0000000000000000e+00  0.0000000000000000e+00  0.0000000000000000e+00  0.0000000000000000e+00  0.0000000000000000e+00  0.0000000000000000e+00  0.0000000000000000e+00  0.0000000000000000e+00  0.0000000000000000e+00  0.0000000000000000e+00  0.0000000000000000e+00  0.0000000000000000e+00  0.0000000000000000e+00  0.0000000000000000e+00  0.0000000000000000e+00  0.0000000000000000e+00  0.0000000000000000e+00  0.0000000000000000e+00  0.0000000000000000e+00  0.0000000000000000e+00  0.0000000000000000e+00  0.0000000000000000e+00  0.0000000000000000e+00  0.0000000000000000e+00  0.0000000000000000e+00  0.0000000000000000e+00  0.0000000000000000e+00  0.0000000000000000e+00  0.0000000000000000e+00  0.0000000000000000e+00  0.0000000000000000e+00  0.0000000000000000e+00  0.0000000000000000e+00  0.0000000000000000e+00  0.0000000000000000e+00  0.0000000000000000e+00  0.0000000000000000e+00  0.0000000000000000e+00  0.0000000000000000e+00  0.0000000000000000e+00  0.0000000000000000e+00  0.0000000000000000e+00  0.0000000000000000e+00  0.0000000000000000e+00  0.0000000000000000e+00  0.0000000000000000e+00  0.0000000000000000e+00  0.0000000000000000e+00  0.0000000000000000e+00  0.0000000000000000e+00  0.0000000000000000e+00  0.0000000000000000e+00  0.0000000000000000e+00  0.0000000000000000e+00  0.0000000000000000e+00  0.0000000000000000e+00  0.0000000000000000e+00  0.0000000000000000e+00  0.0000000000000000e+00  0.0000000000000000e+00  0.0000000000000000e+00  0.0000000000000000e+00  0.0000000000000000e+00  0.0000000000000000e+00  0.0000000000000000e+00  0.0000000000000000e+00  0.0000000000000000e+00  0.0000000000000000e+00  0.0000000000000000e+00  0.0000000000000000e+00  0.0000000000000000e+00  0.0000000000000000e+00  0.0000000000000000e+00  0.0000000000000000e+00  0.0000000000000000e+00  0.0000000000000000e+00  0.0000000000000000e+00  0.0000000000000000e+00  0.0000000000000000e+00  0.0000000000000000e+00  0.0000000000000000e+00  0.0000000000000000e+00  0.0000000000000000e+00  0.0000000000000000e+00  0.0000000000000000e+00  0.0000000000000000e+00  0.0000000000000000e+00  0.0000000000000000e+00  0.0000000000000000e+00  0.0000000000000000e+00  0.0000000000000000e+00  0.0000000000000000e+00  0.0000000000000000e+00  0.0000000000000000e+00  0.0000000000000000e+00  0.0000000000000000e+00  0.0000000000000000e+00  0.0000000000000000e+00  0.0000000000000000e+00  0.0000000000000000e+00  0.0000000000000000e+00  0.0000000000000000e+00  0.0000000000000000e+00  0.0000000000000000e+00  0.0000000000000000e+00  0.0000000000000000e+00  0.0000000000000000e+00  0.0000000000000000e+00  0.0000000000000000e+00  0.0000000000000000e+00  0.0000000000000000e+00  0.0000000000000000e+00  0.0000000000000000e+00  0.0000000000000000e+00  0.0000000000000000e+00  0.0000000000000000e+00  0.0000000000000000e+00  0.0000000000000000e+00  0.0000000000000000e+00  0.0000000000000000e+00  0.0000000000000000e+00  0.0000000000000000e+00  0.0000000000000000e+00  0.0000000000000000e+00  0.0000000000000000e+00  0.0000000000000000e+00  0.0000000000000000e+00  0.0000000000000000e+00  0.0000000000000000e+00  0.0000000000000000e+00  0.0000000000000000e+00  0.0000000000000000e+00  0.0000000000000000e+00  0.0000000000000000e+00  0.0000000000000000e+00  0.0000000000000000e+00  0.0000000000000000e+00  0.0000000000000000e+00  0.0000000000000000e+00  0.0000000000000000e+00  0.0000000000000000e+00  0.0000000000000000e+00  0.0000000000000000e+00  0.0000000000000000e+00  0.0000000000000000e+00  0.0000000000000000e+00  0.0000000000000000e+00  0.0000000000000000e+00  0.0000000000000000e+00  0.0000000000000000e+00  0.0000000000000000e+00  0.0000000000000000e+00  0.0000000000000000e+00  0.0000000000000000e+00  0.0000000000000000e+00  0.0000000000000000e+00  0.0000000000000000e+00  0.0000000000000000e+00  0.0000000000000000e+00  0.0000000000000000e+00  0.0000000000000000e+00  0.0000000000000000e+00  0.0000000000000000e+00  0.0000000000000000e+00  0.0000000000000000e+00  0.0000000000000000e+00  0.0000000000000000e+00  0.0000000000000000e+00  0.0000000000000000e+00  0.0000000000000000e+00  0.0000000000000000e+00  0.0000000000000000e+00  0.0000000000000000e+00  0.0000000000000000e+00  0.0000000000000000e+00  0.0000000000000000e+00  0.0000000000000000e+00  0.0000000000000000e+00  0.0000000000000000e+00  1.2500966492552124e+00  9.3757188402279767e-01  9.3750137705065095e-01  9.3752066667276956e-01  9.3754821184508286e-01  9.1653787253540353e-01  8.8271356894606534e-01  7.5128758388408023e-01  7.5121473282766804e-01  6.8776550173492101e-01  6.8462783913292402e-01  6.6404432033338123e-01  6.5550287768724624e-01  1.1318029420894955e+00  1.1317965661513381e+00  1.1444184161020605e+00  5.8294780090168896e-01  5.8290944364203967e-01  5.8711379851973067e-01  5.8292169415786155e-01  1.1457180421214452e+00  1.1244245599335345e+00  5.5934400002822726e-01  5.6034883856197382e-01  1.0879565521523114e+00  5.4758757617346210e-01  5.3005221077412956e-01  5.7238014584162056e-01  5.8555645288891234e-01  5.2770322922333435e-01  9.4444620506002552e-01  6.6319906877886026e-01  4.4391277469439877e-01  4.4391747767864925e-01  4.4776032569716018e-01  4.4392169611310345e-01  9.5576575630666250e-01  8.6170633707935518e-01  8.6162266132864607e-01  9.5988464208807878e-01  8.6764802333948410e-01  1.2006452323835175e+00  1.2052955196264037e+00  9.3803601010450000e-01  4.1177436565790670e-01  4.0257478625278548e-01  4.1032625756922164e-01  4.0354628915099111e-01  6.7963988848629964e-01  4.0030045913850926e-01  4.0064786056192070e-01  3.8108567612610139e-01  3.8973717530943253e-01  8.8087504628776503e-01  8.0642846026952264e-01  9.1189534066513200e-01  3.7946334594895309e-01  3.7909649392171535e-01  1.1192886810219504e+00  9.7422763606955065e-01  1.2170693689749386e+00  1.2113630523980696e+00  1.1958212986433192e+00  7.7749693875197912e-01  1.0988356450127315e+00  3.8987226927841717e-01  1.0456609863944764e+00  1.0913634407432193e+00  3.7588294477276762e-01  3.5784656544428561e-01  7.5224956412993949e-01  8.4346223503246021e-01  3.5048866308755250e-01  1.0912334358155384e+00  1.2202720646155589e+00  1.0412834780497096e+00  1.0304034408096372e+00  1.0625417739218812e+00  1.0358141780553258e+00  7.8614107833841507e-01  3.3464749160696983e-01  3.3157967807854516e-01  3.3150743966516388e-01  6.9183136598003470e-01  3.3222931218413099e-01  3.5406376073601709e-01  8.1379322767642881e-01  7.1595989007589589e-01  3.2137404034009498e-01  1.0247399014326637e+00  7.7655226305575431e-01  8.1921328402305960e-01  6.7691831972077365e-01  3.1274113497232309e-01  9.6408820543904461e-01  6.7794563804798214e-01  6.7790724994829910e-01  3.1065235843186817e-01  1.0285918234801026e+00  3.1156154106545336e-01  7.3234790311162701e-01  3.1189898041702108e-01  6.4661253928626006e-01  7.8055544469766025e-01  7.5322492306594535e-01  1.1514047278705488e+00  1.0552712185719471e+00  1.0349454183675060e+00  2.9862473213185553e-01  6.1979742886297173e-01  2.8598591536424423e-01  1.0179190525066761e+00  7.2150811414300164e-01  8.0731804123873951e-01  3.1274921340556849e-01  6.2541561372072274e-01  1.2069786710747430e+00  8.1231744571177100e-01  5.4896305108130150e-01  6.3084589554521331e-01  3.2948454385503889e-01  3.0749854303474911e-01  5.4684183570554090e-01  9.0474724298586806e-01  1.1450292029793807e+00  7.4908218281128969e-01  5.9610285099041893e-01  1.1382434593232356e+00  2.8170738961233593e-01  5.9973301450361760e-01  3.7549789720780402e-01  2.9345491844883331e-01  5.6738336304334236e-01  9.1490351753439214e-01  2.8374828982504485e-01  2.8675458663524794e-01  2.7302258126385287e-01  2.7200801917394141e-01  7.0792261450855554e-01  1.2049320355758628e+00  4.5542030339352979e-01  9.9647466810130525e-01  5.8759235027039802e-01  1.1285808631049645e+00  4.9976466956199528e-01  1.2361295596241721e+00  5.5737463726815673e-01  1.0646251144557131e+00  2.4684856511967926e-01  3.7514197629863993e-01  2.7194936348566534e-01  8.9066485536693707e-01  8.0990286377439047e-01  1.0574969190694370e+00  8.2266374719487068e-01  2.4589534633987056e-01  2.4754173953777744e-01  2.4086668425085148e-01  2.4077970246826064e-01  5.0072684127196909e-01  7.7878300129917577e-01  1.1641428121773636e+00  5.1759420506648224e-01  4.8204950065317864e-01  6.8763858175756565e-01  8.2311018322695495e-01  5.7600715678373948e-01  8.6570583491873410e-01  9.8237233785721245e-01  1.2373626205933081e+00  1.1670857155791110e+00  5.2771081417031029e-01  8.1294630610753738e-01  2.5266163723434326e-01  1.1385913973734667e+00  1.0603680492355663e+00  9.4646876662271862e-01  5.2617181790274026e-01  1.0400578150400126e+00  5.5246338576965703e-01  8.6777604552871723e-01  9.5009346088368896e-01  5.1511686443438887e-01  8.3797314086312824e-01  4.8527732133643914e-01  5.5150170541275167e-01  1.1642473270300666e+00  1.2376134803564025e+00  1.1707748138160350e+00  2.2591408635908730e-01  2.3499475487064472e-01  9.1884319502210410e-01  2.2729331102768813e-01  2.4569565822035877e-01  9.0346330781823203e-01  8.1382825099631084e-01  7.3609253031539601e-01  8.1378962738933369e-01  7.2523008100444486e-01  9.4442511169248722e-01  7.3558114881121217e-01  5.6430750787760553e-01  2.2822202307479106e-01  2.1892465516891535e-01  2.1926679006203292e-01  4.9765043299966455e-01  8.4206469704115516e-01  4.9919635745388546e-01  4.8048330844185300e-01  2.2111035032993831e-01  2.1977595111601048e-01  9.6993273037408789e-01  1.0574148372241599e+00  2.1933216640626030e-01  1.0392651121569565e+00  1.0337196181045643e+00  1.1172110114750837e+00  2.1150661265800230e-01  9.3140810071226887e-01  2.1664424089114670e-01  1.2403035976739316e+00  6.6544005756166391e-01  2.3600595240304073e-01  2.2397979174634888e-01  2.1190435557601542e-01  1.0171153637944184e+00  2.0817588470386730e-01  2.7436811589882565e-01  4.2258990870081364e-01  2.3075143902087011e-01  2.0677542659626671e-01  5.5911245974790580e-01  4.5243217678667136e-01  4.6819759563474950e-01  4.4807508757866193e-01  2.1656407899884803e-01  6.0310123229772561e-01  2.2502130793235672e-01  4.1777134896479623e-01  2.0272305224783674e-01  1.1784940480692641e+00  1.1984390723771037e+00  4.6254864488625258e-01  4.8420396784981101e-01  7.9271987769889796e-01  1.1992202477655527e+00  5.7495233523149780e-01  9.8110274321238122e-01  9.3672969521579508e-01  1.1754104760684130e+00  5.1098250805978140e-01  7.5564785742738982e-01  6.9406001546041762e-01  5.2509801581090321e-01  2.0294323839342443e-01  2.1291526433189278e-01  2.0275437025087112e-01  2.5209455118167817e-01  9.4066763563850575e-01  9.4404856652396785e-01  7.2397997761708099e-01  2.0751345557675216e-01  7.1651238510881043e-01  1.0512397477822186e+00  2.0296812511437967e-01  8.2671812826029500e-01  1.0949020782087560e+00  1.0899106751784700e+00  1.2189917153668073e+00  1.1503535564254741e+00  7.1741524682310664e-01  1.2418610879290091e+00  2.0695694103310691e-01  1.1041138921233618e+00  8.7075569477500414e-01  9.5235381739303271e-01  7.9822155666315919e-01  7.5079663554946885e-01  7.6889499662859351e-01  2.0846486186201907e-01  1.1336519044920510e+00  5.3957629120816208e-01  9.6857278808784275e-01  6.6086808249395079e-01  8.2573616513169146e-01  1.0289977676191961e+00  1.0310485972515044e+00  1.1042162483115092e+00  2.4809122325573349e-01  1.0890514126855448e+00  6.0169655921131138e-01  1.1569801189980411e+00  7.1434931222134979e-01  6.5212867840601629e-01  1.2377270522840622e+00  1.0163857106050007e+00  4.8104942951843577e-01  6.9019187089216449e-01  5.4890649860792184e-01  1.1813623984550670e+00  4.2777797779286120e-01  8.8582754723910562e-01  5.8877634248367039e-01  1.8923939047390129e-01  1.8538404656723576e-01  1.2102863219730793e+00  6.5023887069728759e-01  1.9681937236972924e-01  4.3695578236235799e-01  4.7329439580770083e-01  1.9560111378948392e-01  4.3484806484121480e-01  1.8970130175989161e-01  1.9301306542209351e-01  1.0981275512962640e+00  1.8398384901113846e-01  6.4256762076056462e-01  7.0271919398985183e-01  7.1155128824224945e-01  5.3629780756012635e-01  1.8228286475392300e-01  1.0348231697353458e+00  1.0300911019534122e+00  1.1094383616343257e+00  9.3241520154435242e-01  3.9957553521104616e-01  9.5897278640065087e-01  7.6082283203665402e-01  8.5971845700476468e-01  1.2282402487150959e+00  1.7958698834789999e-01  1.8013234469963982e-01  4.5481061657782029e-01  1.0051318773022029e+00  1.0961890661878373e+00  6.8700447581559076e-01  1.0147832861648594e+00  9.9555250677219664e-01  6.0720294651770312e-01  8.4501493520858928e-01  9.6009712354493504e-01  7.1726864664915824e-01  8.2228294837031213e-01  6.9801081062973847e-01  8.6007469212617249e-01  3.8076835593721875e-01  4.6094096949744956e-01  9.0440257477296804e-01  6.6320439168639722e-01  1.1777940937841023e+00  1.8402753010425069e-01  8.7236074275893216e-01  8.7790447608099187e-01  4.9507990295222115e-01  4.2523654791518556e-01  3.9598200002880207e-01  3.8283251733507795e-01  1.1829441721392764e+00  3.7141131148018025e-01  8.5783507270254533e-01  9.9093693379027314e-01  5.9134604565128346e-01  6.3376201835513946e-01  1.1102171725763565e+00  3.8855772585421205e-01  3.8180613986789802e-01  6.6886623118760924e-01  6.4580972430980532e-01  8.8999704397855106e-01  3.8942489495109428e-01  1.2231983470424459e+00  7.6078181684800472e-01  1.0179668672258615e+00  1.1016128008076689e+00  1.6666139542000827e-01  3.8482662461442596e-01  8.4513782534495641e-01  1.6959539659654171e-01  8.3113348275179799e-01  2.6203583035760469e-01  1.7005986884390598e-01  1.6541410222598463e-01  1.6962552191617192e-01  7.6773955108019676e-01  1.2440893390778960e+00  8.4119934104441507e-01  1.7046144542165517e-01  1.6288570988984316e-01  9.6013866804670622e-01  6.1168629705260980e-01  1.1710435126406198e+00  6.8093157246559455e-01  6.3445891342010541e-01  1.6660653299206415e-01  6.8188746033383330e-01  9.4590974235471204e-01  1.0915245974159042e+00  1.6641466200428276e-01  4.0834895089921769e-01  6.3199001789308673e-01  5.6407420388607876e-01  4.3770598554085188e-01  3.6093119652479927e-01  1.7341758088501236e-01  3.7512885095481979e-01  4.1937888693492842e-01  4.4198020125174969e-01  3.6835251572918709e-01  9.8725822402699059e-01  3.6948732843016963e-01  1.1418731269620332e+00  7.1736236755798855e-01  7.6724818859171073e-01  5.6172364837008393e-01  5.2037036504189349e-01  2.1473537985550573e-01  9.9673621311554672e-01  6.9641850604346378e-01  4.2997828714020681e-01  3.9868026765081899e-01  6.0155865351946625e-01  1.2267779489096668e+00  7.0974434487018223e-01  4.3718153860713493e-01  5.9439996572781795e-01  1.0533296159502366e+00  1.6569216567141523e-01  1.5785296766388851e-01  7.7630438813345226e-01  8.4841109160468020e-01  7.9382186655779052e-01  1.6161959814251381e-01  1.0809645411783864e+00  1.1865994900725059e+00  7.8154461080354765e-01  5.5789955419920312e-01  3.7830935888597123e-01  1.1341552405859829e+00  1.1923173881454827e+00  5.3669584864242048e-01  9.2432111592449728e-01  3.3589003845882548e-01  1.6050207626395738e-01  8.2717481918001334e-01  1.5279601170520030e-01  1.1043490658804411e+00  6.7878947100485287e-01  9.8260290854545296e-01  1.0527537304009700e+00  9.7349221130069263e-01  1.0890345929877698e+00  7.8259511193248743e-01  1.5527618076670935e-01  1.5720456390277551e-01  1.6017131837557302e-01  4.5559217552652870e-01  3.8407926697925432e-01  7.2386738774464565e-01  5.0484657201986705e-01  3.5519516080524627e-01  1.5711480075111628e-01  1.2000120852759979e+00  5.0897633185378355e-01  5.6841375501935132e-01  1.1643148224524102e+00  4.5975350351306865e-01  9.1463256105697133e-01  1.0819496524187329e+00  1.4895846947954353e-01  9.9980720186721694e-01  4.6306173202403961e-01  1.1726213890156107e+00  1.2197455935298083e+00  3.3685791684903699e-01  3.5705668345747471e-01  1.6292061942769989e-01  9.5905051832462673e-01  1.4553108564404424e-01  8.2550694463631469e-01  1.0725320553639754e+00  9.8288001206605147e-01  8.9010408780114614e-01  6.3830397253749072e-01  3.2929386363485846e-01  5.8686803761203732e-01  1.5228063995616981e-01  6.3406943407576966e-01  7.4205679017631598e-01  8.6377860700127851e-01  8.8108878465202611e-01  7.8893021981417921e-01  5.1563821212164140e-01  5.9336678202035176e-01  6.5471545999897640e-01  3.2702301801892103e-01  1.1045096470123514e+00  1.4365602463065241e-01  1.1493665440845806e+00  8.9004643843287556e-01  7.3057250927939943e-01  7.7271616293945311e-01  8.2396983316924099e-01  8.8245132879393473e-01  6.4798094081661972e-01  1.0886740179233327e+00  1.1706135027369815e+00  5.3656811508001023e-01  1.4708606161164159e-01  9.7985350253006009e-01  3.3841857471659598e-01  8.9523539945030672e-01  1.1044054293546619e+00  5.3992655661068722e-01  1.1411019490144216e+00  1.2005427502004755e+00  6.5955261083700245e-01  1.0393689726505559e+00  6.1166215794394063e-01  6.5432465625037528e-01  5.2205072491334725e-01  7.2335324369879506e-01  6.4420978176401356e-01  9.4107453231430971e-01  1.4974461755428387e-01  9.9790873053655849e-01  3.6724093928847878e-01  6.0863508848569736e-01  8.5396535873448121e-01  1.4970603225219373e-01  3.4694244285336268e-01  1.1974995983300609e+00  4.3344684850042