<?xml version="1.0"?>
<VTKFile type="UnstructuredGrid"  version="0.1"  >
<UnstructuredGrid>
<Piece  NumberOfPoints="3238" NumberOfCells="6293">
<Points>
<DataArray  type="Float64"  NumberOfComponents="3"  format="ascii">0.9486832980505138 0 0  0.9475040099727444 0.047287959202839 0  0.9439690776354089 0.09445835308830697 0  0.9380872894372694 0.1413939086249357 0  0.9298732684305336 0.1879779366263939 0  0.9193474359656434 0.23409462185919 0  0.906535960920579 0.279629310977591 0  0.8914706946409063 0.3244687975699048 0  0.8741890917523123 0.3685016036074568 0  0.8547341170425047 0.4116182565965337 0  0.8331541386439797 0.453711561744252 0  0.809502807783224 0.4946768684617026 0  0.7838389253953122 0.5344123305418039 0  0.7562262959355172 0.5728191593650196 0  0.7267335687513813 0.6098018695034324 0  0.6954340674096222 0.6452685161125631 0  0.6624056074021922 0.6791309235207397 0  0.6277303026847052 0.7113049044477118 0  0.5914943615282048 0.741710469307493 0  0.5537878721918187 0.7702720250750756 0  0.514704578949153 0.7969185632226012 0  0.4743416490252568 0.8215838362577492 0  0.4327994310235916 0.8442065224254403 0  0.3901812054435905 0.8647303781633826 0  0.3465929279090647 0.8831043779324287 0  0.3021429657458285 0.8992828410741055 0  0.2569418285634513 0.9132255453799296 0  0.211101893510957 0.9248978270901541 0  0.1647371258895251 0.9342706670733373 0  0.1179627958167953 0.9413207629724764 0  0.07089519164719264 0.9460305871383375 0  0.02365133086075582 0.9483884302059546 0  -0.02365133086075571 0.9483884302059546 0  -0.07089519164719252 0.9460305871383375 0  -0.1179627958167952 0.9413207629724764 0  -0.164737125889525 0.9342706670733373 0  -0.2111018935109568 0.9248978270901541 0  -0.2569418285634511 0.9132255453799297 0  -0.3021429657458284 0.8992828410741056 0  -0.3465929279090646 0.8831043779324288 0  -0.3901812054435902 0.8647303781633827 0  -0.4327994310235911 0.8442065224254405 0  -0.4743416490252571 0.821583836257749 0  -0.5147045789491529 0.7969185632226014 0  -0.5537878721918184 0.7702720250750758 0  -0.5914943615282047 0.7417104693074931 0  -0.627730302684705 0.711304904447712 0  -0.6624056074021921 0.6791309235207398 0  -0.6954340674096222 0.6452685161125631 0  -0.7267335687513812 0.6098018695034326 0  -0.7562262959355172 0.5728191593650196 0  -0.783838925395312 0.5344123305418041 0  -0.8095028077832239 0.4946768684617027 0  -0.8331541386439798 0.4537115617442519 0  -0.8547341170425046 0.4116182565965338 0  -0.8741890917523124 0.3685016036074567 0  -0.8914706946409062 0.324468797569905 0  -0.9065359609205789 0.2796293109775914 0  -0.9193474359656433 0.2340946218591902 0  -0.9298732684305336 0.1879779366263939 0  -0.9380872894372694 0.141393908624936 0  -0.9439690776354089 0.09445835308830704 0  -0.9475040099727444 0.0472879592028393 0  -0.9486832980505138 1.161801964362116e-16 0  -0.9475040099727444 -0.04728795920283906 0  -0.9439690776354089 -0.0944583530883068 0  -0.9380872894372694 -0.1413939086249357 0  -0.9298732684305338 -0.1879779366263937 0  -0.9193474359656434 -0.23409462185919 0  -0.9065359609205791 -0.2796293109775908 0  -0.8914706946409063 -0.3244687975699048 0  -0.8741890917523123 -0.3685016036074569 0  -0.8547341170425047 -0.4116182565965337 0  -0.8331541386439799 -0.4537115617442517 0  -0.809502807783224 -0.4946768684617024 0  -0.7838389253953122 -0.5344123305418039 0  -0.7562262959355173 -0.5728191593650194 0  -0.7267335687513813 -0.6098018695034324 0  -0.6954340674096223 -0.6452685161125629 0  -0.6624056074021922 -0.6791309235207396 0  -0.6277303026847055 -0.7113049044477116 0  -0.5914943615282049 -0.7417104693074928 0  -0.5537878721918191 -0.7702720250750751 0  -0.5147045789491528 -0.7969185632226014 0  -0.4743416490252565 -0.8215838362577493 0  -0.4327994310235917 -0.8442065224254401 0  -0.3901812054435904 -0.8647303781633826 0  -0.3465929279090654 -0.8831043779324285 0  -0.302142965745829 -0.8992828410741054 0  -0.2569418285634507 -0.9132255453799298 0  -0.2111018935109571 -0.9248978270901541 0  -0.164737125889525 -0.9342706670733373 0  -0.1179627958167959 -0.9413207629724762 0  -0.07089519164719296 -0.9460305871383375 0  -0.02365133086075594 -0.9483884302059546 0  0.02365133086075559 -0.9483884302059546 0  0.07089519164719262 -0.9460305871383375 0  0.1179627958167947 -0.9413207629724765 0  0.1647371258895247 -0.9342706670733374 0  0.2111018935109567 -0.9248978270901541 0  0.2569418285634512 -0.9132255453799296 0  0.3021429657458287 -0.8992828410741055 0  0.3465929279090643 -0.8831043779324289 0  0.3901812054435901 -0.8647303781633827 0  0.4327994310235914 -0.8442065224254404 0  0.474341649025257 -0.8215838362577491 0  0.5147045789491531 -0.7969185632226011 0  0.5537878721918182 -0.7702720250750759 0  0.5914943615282046 -0.7417104693074931 0  0.6277303026847045 -0.7113049044477123 0  0.6624056074021923 -0.6791309235207396 0  0.6954340674096223 -0.6452685161125629 0  0.7267335687513811 -0.6098018695034327 0  0.756226295935517 -0.5728191593650197 0  0.7838389253953117 -0.5344123305418045 0  0.8095028077832241 -0.4946768684617024 0  0.8331541386439795 -0.4537115617442524 0  0.8547341170425046 -0.4116182565965339 0  0.8741890917523123 -0.3685016036074568 0  0.891470694640906 -0.3244687975699055 0  0.9065359609205789 -0.2796293109775915 0  0.9193474359656433 -0.2340946218591903 0  0.9298732684305336 -0.187977936626394 0  0.9380872894372694 -0.1413939086249356 0  0.9439690776354088 -0.09445835308830756 0  0.9475040099727444 -0.04728795920283941 0  -1.110223024625157e-16 0 0  0.09401819085916749 0.4650811898201446 0  -0.1170837026517897 -0.4598166372700095 0  0.3396710376326679 -0.3313057795005979 0  -0.3985831684342213 0.2574323040682528 0  0.4497812206361214 0.1511184532081793 0  -0.4678296522449308 -0.1836096083159234 0  -0.2355895500368295 0.5588844465176851 0  0.6052680571897296 -0.13814848431036 0  0.4316692651305813 0.4652288238608486 0  0.1699440018198525 -0.6040168882337353 0  -0.4163959192923318 -0.4962413327582046 0  -0.642769633956783 0.08054948543602583 0  -0.1115343976851466 0.2645908534915992 0  -0.1931670123238877 -0.1956285404753415 0  -0.2498407161687224 0.05177370136134687 0  5.898059818321144e-17 0.6981687943722161 0  -0.483109708437092 0.4979263437835442 0  0.361822037928239 -0.08258351904766598 0  0.4140141091090378 -0.566746635611325 0  0.6929212426656604 0.09538900823688645 0  -0.0577528169651628 -0.6994812675480986 0  0.2627635891281025 0.6484391215838409 0  0.1382745535810828 0.2140908845129365 0  0.1054207391253911 -0.3746875801437122 0  0.5845251382931255 -0.3858631758496659 0  -0.6990994377782311 -0.1595648846227037 0  0.6286160902717877 0.3271574405247115 0  -0.6370624647935379 0.3175922410853823 0  -0.6124653864901638 -0.3738489675350367 0  -0.2494905375702229 -0.6197712340060334 0  -0.4462945377711946 0.06630684398331937 0  0.154085691826424 -0.1588211969343469 0  0.2628873183017176 0.3654604251354111 0  -0.2806326729121043 -0.3638673359729195 0  0.2026367527909965 0.03002855433820255 0  -0.1883118667610724 0.7395472415971669 0  -0.3689568220919447 0.6775183381377181 0  -0.01993573429158397 -0.1734976089647549 0  -0.06367146275187838 0.5369808941678446 0  -0.3316788968411377 0.416048485101486 0  0.7214844899758113 -0.2726059376698902 0  0.7720971247867674 -0.09675632267405895 0  0.1158073085217154 -0.7683312895489415 0  0.3018176618408421 -0.7159960909166414 0  0.4736984522064285 0.6253687923070728 0  0.5997774220600344 0.495521041348345 0  0.5469845192899859 0.01694506421294018 0  0.4856555657620147 -0.2528582988922201 0  0.2423446599045919 -0.4599048318856052 0  0.01521443790310079 -0.5542414116777824 0  -0.3574093932547061 -0.06723838122191451 0  -0.1666092886506407 0.4146684525890751 0  -0.4115626391796692 -0.6642315991087294 0  0.2992692056075354 0.2085319774104712 0  -0.572142060044865 -0.06268399171098044 0  -0.4371838101656676 -0.3391145623819656 0  -0.7707361814220313 0.1759155038859614 0  -0.5659336192050233 -0.5519960729153512 0  -0.781552063470025 -0.01355730092482357 0  0.4696031588163752 0.3098387714856638 0  -0.0407097757674429 -0.3260896361090374 0  0.1559699745134315 0.7715390038889668 0  -0.5407358600344384 0.1966829475589161 0  -0.1986272613426354 -0.7678844928272964 0  0.5718291349409204 -0.5447036247449454 0  0.03058522588194268 0.3244992985667739 0  -0.253677331372863 0.2056171147481587 0  -0.1073780288228645 0.1105396375341932 0  -0.6367212858270217 0.4731834134190286 0  0.2931219035594987 0.5069630201331456 0  0.7563577705703616 0.2377948341003486 0  0.3420380570748312 0.05826637322450373 0  -0.1206725986386512 -0.07402828271247157 0  -0.3322725603356667 -0.2301646198664473 0  -0.7419042025048581 -0.3015255626410849 0  0.1195701669044717 0.6108932180062702 0  -0.5015416239321893 0.635717225788853 0  0.02737692077249736 0.134017139808744 0  0.3773860468351642 0.7206094891915363 0  0.812860493436187 0.03242610295987979 0  -0.07388611981097105 0.8111052309222055 0  -0.2442959246965964 -0.4892922127605825 0  0.7135655733810858 -0.4024692785058807 0  -0.3642932467066346 0.5484789362268634 0  -0.4524881480946273 0.3735876073978892 0  0.2099213516485349 -0.2848275062564233 0  0.3122478006637144 -0.2035159833569798 0  0.43109624127659 -0.6963837980763679 0  -0.004731464407071888 -0.8190067012611293 0  0.5600613423512718 0.2179439150874347 0  0.4468733578206618 -0.4269132077142946 0  0.4872830744017452 -0.09398863600514806 0  0.6664633094267685 -0.02789868416369569 0  -0.1060590692061801 -0.5842636330575839 0  0.2930869539360575 -0.5926370091989965 0  0.7165056531269813 0.4136747317087512 0  -0.6713889199795591 -0.4826957611142691 0  -0.1650615436669499 -0.3170959485608871 0  -0.7560359509185862 0.3411364121550141 0  -0.8181202307149236 -0.1442566701384753 0  -0.5906147236861463 -0.2403599348016739 0  0.1272020529197239 -0.4923009383391831 0  -0.1391534729758148 0.6301655208396788 0  -0.3568886656162428 0.1455060335331444 0  0.06164593118022811 -0.2623143376591542 0  -0.2389144395603171 -0.06622081533685589 0  -0.3247128298437102 
[...]
<PointData  Scalars="f_28-2"> 
<DataArray  type="Float64"  Name="f_28-2"  format="ascii">0.0000000000000000e+00  0.0000000000000000e+00  0.0000000000000000e+00  0.0000000000000000e+00  0.0000000000000000e+00  0.0000000000000000e+00  0.0000000000000000e+00  0.0000000000000000e+00  0.0000000000000000e+00  0.0000000000000000e+00  0.0000000000000000e+00  0.0000000000000000e+00  0.0000000000000000e+00  0.0000000000000000e+00  0.0000000000000000e+00  0.0000000000000000e+00  0.0000000000000000e+00  0.0000000000000000e+00  0.0000000000000000e+00  0.0000000000000000e+00  0.0000000000000000e+00  0.0000000000000000e+00  0.0000000000000000e+00  0.0000000000000000e+00  0.0000000000000000e+00  0.0000000000000000e+00  0.0000000000000000e+00  0.0000000000000000e+00  0.0000000000000000e+00  0.0000000000000000e+00  0.0000000000000000e+00  0.0000000000000000e+00  0.0000000000000000e+00  0.0000000000000000e+00  0.0000000000000000e+00  0.0000000000000000e+00  0.0000000000000000e+00  0.0000000000000000e+00  0.0000000000000000e+00  0.0000000000000000e+00  0.0000000000000000e+00  0.0000000000000000e+00  0.0000000000000000e+00  0.0000000000000000e+00  0.0000000000000000e+00  0.0000000000000000e+00  0.0000000000000000e+00  0.0000000000000000e+00  0.0000000000000000e+00  0.0000000000000000e+00  0.0000000000000000e+00  0.0000000000000000e+00  0.0000000000000000e+00  0.0000000000000000e+00  0.0000000000000000e+00  0.0000000000000000e+00  0.0000000000000000e+00  0.0000000000000000e+00  0.0000000000000000e+00  0.0000000000000000e+00  0.0000000000000000e+00  0.0000000000000000e+00  0.0000000000000000e+00  0.0000000000000000e+00  0.0000000000000000e+00  0.0000000000000000e+00  0.0000000000000000e+00  0.0000000000000000e+00  0.0000000000000000e+00  0.0000000000000000e+00  0.0000000000000000e+00  0.0000000000000000e+00  0.0000000000000000e+00  0.0000000000000000e+00  0.0000000000000000e+00  0.0000000000000000e+00  0.0000000000000000e+00  0.0000000000000000e+00  0.0000000000000000e+00  0.0000000000000000e+00  0.0000000000000000e+00  0.0000000000000000e+00  0.0000000000000000e+00  0.0000000000000000e+00  0.0000000000000000e+00  0.0000000000000000e+00  0.0000000000000000e+00  0.0000000000000000e+00  0.0000000000000000e+00  0.0000000000000000e+00  0.0000000000000000e+00  0.0000000000000000e+00  0.0000000000000000e+00  0.0000000000000000e+00  0.0000000000000000e+00  0.0000000000000000e+00  0.0000000000000000e+00  0.0000000000000000e+00  0.0000000000000000e+00  0.0000000000000000e+00  0.0000000000000000e+00  0.0000000000000000e+00  0.0000000000000000e+00  0.0000000000000000e+00  0.0000000000000000e+00  0.0000000000000000e+00  0.0000000000000000e+00  0.0000000000000000e+00  0.0000000000000000e+00  0.0000000000000000e+00  0.0000000000000000e+00  0.0000000000000000e+00  0.0000000000000000e+00  0.0000000000000000e+00  0.0000000000000000e+00  0.0000000000000000e+00  0.0000000000000000e+00  0.0000000000000000e+00  0.0000000000000000e+00  0.0000000000000000e+00  0.0000000000000000e+00  0.0000000000000000e+00  0.0000000000000000e+00  0.0000000000000000e+00  0.0000000000000000e+00  0.0000000000000000e+00  1.3788673159489286e+00  1.0408137693013439e+00  1.0407994746024458e+00  1.0419443179350780e+00  1.0413075774083709e+00  1.0415043679350342e+00  9.9975846034516680e-01  8.2263639152149337e-01  7.9468888872751164e-01  7.6796263453281743e-01  7.8267064691484578e-01  7.4137583520567651e-01  7.4225686359574461e-01  1.2549029611817764e+00  1.2657212880548618e+00  1.2817292021567062e+00  6.3446731437335424e-01  6.4417888773819865e-01  1.1723995570601033e+00  6.2655514796687439e-01  6.3254030133796912e-01  6.2628306167480163e-01  6.3161917010428004e-01  1.2820142420453107e+00  1.1526042806490786e+00  6.2929698045555194e-01  5.9250006107000397e-01  6.1214277627661950e-01  6.0402345865869622e-01  5.9064213226890927e-01  6.9978700595762733e-01  1.0737580584758244e+00  1.3053580632242712e+00  1.0757951445133676e+00  1.0625763849513006e+00  1.3159176515908817e+00  4.8422270294796488e-01  4.6486494869200307e-01  1.3338459269365719e+00  9.3841252212785964e-01  9.5338464235338327e-01  4.6421799957623483e-01  4.4769050592994974e-01  4.5086877789055591e-01  4.5107084479222403e-01  4.3189236990964314e-01  4.4822577243381079e-01  9.2736595334654393e-01  9.2802085113872723e-01  9.7300862707194247e-01  9.1573213314111024e-01  1.1814205653742442e+00  1.0791820074150942e+00  4.4003983854269352e-01  1.1797234737103077e+00  8.7967210227570458e-01  9.1766688579980082e-01  4.1711165456908572e-01  4.1762516875782363e-01  4.3924485870700436e-01  9.0158401468490068e-01  1.2172284779352023e+00  4.2600426189221791e-01  8.7970666000498654e-01  4.1083505780790902e-01  4.1910295739247178e-01  1.2204674281293530e+00  1.2189069617483883e+00  1.3433117263090002e+00  4.1051421047364112e-01  8.6135562500528695e-01  4.1156266484545734e-01  1.1989015019369929e+00  1.3485182142592298e+00  1.1344957392527133e+00  3.9120123748677282e-01  7.9208012253816051e-01  3.6961108756910493e-01  1.3505733602561651e+00  3.6107230719400146e-01  3.5918059117958828e-01  3.5784092062517936e-01  9.2871715767505547e-01  3.4514329041125635e-01  7.1961956411058969e-01  8.5881008777181245e-01  1.1916824973936291e+00  1.1708692545466599e+00  3.4614072253187422e-01  3.4611786673389172e-01  8.3351263813432730e-01  8.0080422222249348e-01  1.0095572191934137e+00  7.0195288316869542e-01  8.4665825862291011e-01  7.1425364975715067e-01  3.2502265081539117e-01  3.2621841607675300e-01  1.1878300346232187e+00  3.1976523224712533e-01  3.1629068428747742e-01  7.6211599468678903e-01  9.9109298785608890e-01  7.4636652344393772e-01  1.1566366626121374e+00  1.2703907237240633e+00  1.2872261020218820e+00  3.3565412582780801e-01  7.1522654001903219e-01  6.9985940511557465e-01  1.1814800545017863e+00  1.0921509214389185e+00  3.7233705926112715e-01  1.1003876325405948e+00  7.0273111705770308e-01  6.5740003263541436e-01  3.1900054906209441e-01  7.0084896557425336e-01  1.1643815497744230e+00  1.2800614356656879e+00  1.3597450146769774e+00  6.6901742467586933e-01  6.6911673622234269e-01  1.0530979557959974e+00  1.0481778334307374e+00  3.1622803630883317e-01  3.0052157514917444e-01  3.0186912950128048e-01  1.0759909190576744e+00  1.0921699393720441e+00  6.6368499298275463e-01  6.8479147106360438e-01  9.1591098503210677e-01  2.9704482981948260e-01  6.4881440360580589e-01  1.3614347472273189e+00  1.2781504674151032e+00  9.1256009362885671e-01  1.2803511703146355e+00  2.7874039963536301e-01  3.0379732031071977e-01  9.0940231502509838e-01  2.9219446092371903e-01  2.9040913736799162e-01  8.0629035933913584e-01  9.2096725867032114e-01  6.3593221356922525e-01  1.1946064910447960e+00  9.2254737498925865e-01  2.9581569404610430e-01  1.0583271947224471e+00  9.3387810877812605e-01  2.9946323432208788e-01  2.6671295780064358e-01  1.1894889548396421e+00  3.7061614409698201e-01  5.5892115513904972e-01  5.8056821916584977e-01  1.0801743196909368e+00  1.1744330385800645e+00  6.0187188898701638e-01  1.0343988117573946e+00  1.2991836074381209e+00  5.3567594314794875e-01  5.2143354383378226e-01  9.2213820665207813e-01  1.0729027996723928e+00  1.3411402099479333e+00  1.2170129122982625e+00  1.1759445050805866e+00  2.4839868078272523e-01  2.5170213010825526e-01  1.3430470778168118e+00  2.4643493626699847e-01  2.4581958788882935e-01  5.7927257440312807e-01  7.9650550012998189e-01  2.5140451705267419e-01  5.5293016035295139e-01  4.2173652598614303e-01  2.5137634989294549e-01  1.0351933995634346e+00  7.8759002634065522e-01  9.2833964208509046e-01  1.0799324808146418e+00  2.6718401917815587e-01  2.4835432885761360e-01  1.1225163084980208e+00  2.6003029980125369e-01  1.3669456554673300e+00  2.4848035964690110e-01  2.5174284504802624e-01  1.2947890811020304e+00  2.3760485322618019e-01  1.0628360480452987e+00  5.3949499199206563e-01  7.8332552993570681e-01  9.5257141307480697e-01  5.4801518876639999e-01  6.1403601157948995e-01  6.3152795788507521e-01  8.4560004096685826e-01  9.6194539991719608e-01  8.1754601621811351e-01  6.2040604380190700e-01  2.3236112675202220e-01  2.2506367413690390e-01  2.2499212720523001e-01  2.2564877789667770e-01  5.4070357094568366e-01  1.2598863181443747e+00  4.6012299919680894e-01  5.1338463423232472e-01  2.3853026545303735e-01  2.4015350485726256e-01  1.3288059527102949e+00  9.1793411553420534e-01  1.3265273226647452e+00  5.4562247783283568e-01  8.5711245855849472e-01  1.3232645637701850e+00  2.3263344581651957e-01  9.1885367622386760e-01  7.8888616630321318e-01  8.5257622872461136e-01  7.8189839619148893e-01  4.9395871082001913e-01  7.9118657557835914e-01  5.0600170200962646e-01  5.2247241880072548e-01  1.2540934391514948e+00  2.1420186009533831e-01  5.8567577597167453e-01  2.2050513508346270e-01  2.2870212115437977e-01  5.7289532342887817e-01  8.4013708956990907e-01  9.9517123898168458e-01  7.7892133889637605e-01  2.2243670267784196e-01  1.0669289041733105e+00  8.9749230348731357e-01  1.1306854252674914e+00  8.6609579688448646e-01  6.0535772577270308e-01  7.4974561799454886e-01  1.2978812721207043e+00  7.5983069424100613e-01  9.7443288807006634e-01  2.2448392011623669e-01  4.9515538996944380e-01  1.2373858991522959e+00  1.0285390829279308e+00  9.3937217457002253e-01  1.0568841074924118e+00  5.1956712337786914e-01  5.0573016659402892e-01  2.1906177663517479e-01  2.2432765789837159e-01  2.1771817923688391e-01  1.0615595788252707e+00  5.0375736666620741e-01  7.9800830065007899e-01  1.0293310406533112e+00  2.0596993487855897e-01  1.2226032804918820e+00  4.9051928135049222e-01  4.7064666489548829e-01  4.9297820370239481e-01  6.6286852461146739e-01  1.3686832659931492e+00  9.4498813838529716e-01  1.2790032573811041e+00  1.1372967620332823e+00  1.1339888032473933e+00  1.2838611836191396e+00  1.2075205387983448e+00  1.1433896304926350e+00  2.0245296133558302e-01  7.7499350935047517e-01  6.9738577849045114e-01  7.7221482672972586e-01  1.3278339235073608e+00  2.8981616649139874e-01  7.4562057238476365e-01  2.1167756185093650e-01  5.9101718822883031e-01  1.2186514161836499e+00  7.1351548679336818e-01  1.2524943186965367e+00  2.6690746884061950e-01  1.3705274835811538e+00  1.2159967595053969e+00  9.8618766264271285e-01  6.7560124885469997e-01  4.5531835354476186e-01  1.2425450420141375e+00  9.2519266525243515e-01  6.1799523272513557e-01  2.0965020074033339e-01  2.6753577606165624e-01  4.8492527885255099e-01  6.7050003203815622e-01  1.2377648427822199e+00  6.0032765533748300e-01  6.3010788837702880e-01  1.8805152138212286e-01  9.8766114886487577e-01  8.1276880402107865e-01  2.1401910515180120e-01  9.3117642938760981e-01  1.1436612270301665e+00  1.9883957115624540e-01  2.0470185439231708e-01  9.9175957886137200e-01  7.5601749885069736e-01  8.1165361115818491e-01  1.0591610942443919e+00  4.7184168410682031e-01  8.8487385943813135e-01  1.9990091501643101e-01  1.8695003372091989e-01  4.4126277842513373e-01  8.6357541534131299e-01  1.2605335526317736e+00  1.1269092663869047e+00  1.1783465295722735e+00  8.5201901828632176e-01  1.3114025695267972e+00  4.7791973880548577e-01  2.0240497925267900e-01  1.3709497641494359e+00  1.8505007396122566e-01  1.2098798998963747e+00  7.9066096740495417e-01  1.0789366198197743e+00  4.3077718823840522e-01  9.6812407977898385e-01  4.5842333628310356e-01  6.2466194682449072e-01  4.0773343517055505e-01  2.0589294149879406e-01  1.1640241011439685e+00  4.2714998803482418e-01  1.1421498188037693e+00  3.5015322809689298e-01  1.1234950072133929e+00  1.8625931167855478e-01  9.3538466688258770e-01  1.2364134686353148e+00  1.3199288772769915e+00  8.0304195636841524e-01  1.9835463897169095e-01  5.2586919365627649e-01  1.2767372968603272e+00  5.0542434128008673e-01  8.1614660155470764e-01  1.0753910458963165e+00  1.1172911485869332e+00  1.1227173277098388e+00  1.8836825181365580e-01  1.7808551708463988e-01  2.8881688309974346e-01  2.7390652458080283e-01  1.0280063075540067e+00  7.4329306351375746e-01  4.0912536552645390e-01  7.9569298581663295e-01  1.9091665283530673e-01  9.6995790198426279e-01  3.7956601437747023e-01  8.9372911582583925e-01  1.8219129183747607e-01  4.8863950632488384e-01  4.6709819972243943e-01  1.2677809244880267e+00  1.3726026472216899e+00  5.9180345135689127e-01  9.4063923093236346e-01  7.3910400262955278e-01  1.7463313059735566e-01  1.7353180928862477e-01  6.3551399622767235e-01  7.1008665085810063e-01  9.5203469550725339e-01  6.3365202277831445e-01  1.1157313153800528e+00  1.8017551473368074e-01  1.6259651476529149e-01  3.9732649304504092e-01  1.1568545851480763e+00  2.8167027223675173e-01  5.9506192003254332e-01  6.2682264657988995e-01  1.1004115791882070e+00  9.6158908518999298e-01  9.0865624656063559e-01  5.7978636961727703e-01  7.2465972399165568e-01  8.9219360955554428e-01  9.4554064901558033e-01  1.2450056833476026e+00  1.1375396458061766e+00  1.2242196583884413e+00  3.9690927833863227e-01  7.0438098247117598e-01  1.6641177065273613e-01  1.6096829293123852e-01  4.4925712897267889e-01  8.0023218189049972e-01  5.9039108547353214e-01  1.6207885438701625e-01  4.6895347799261056e-01  1.5976052461349785e-01  1.2311316349699317e+00  8.5197682643789452e-01  1.8353759833915134e-01  8.3900652466226611e-01  1.3288121839371427e+00  1.3353952566297089e+00  1.3476831570267391e+00  2.1913819221120978e-01  3.7379418283149529e-01  4.0204091629964117e-01  1.0035617564616550e+00  4.5764447262644958e-01  7.0137071341951962e-01  1.1129342696179629e+00  1.5879223370800560e-01  7.4392489604138690e-01  1.1842859707635323e+00  1.1107940653531152e+00  6.7673074508048492e-01  1.5853856409421518e-01  1.5230825797640524e-01  1.7124942559652526e-01  4.5888758468717078e-01  8.4393727899657867e-01  2.2258434668781610e-01  8.9194425714386383e-01  1.1514149934587332e+00  7.8452123853585665e-01  1.5366812321632328e-01  1.0955070025632481e+00  1.1056698038840098e+00  9.1230729293229651e-01  7.2383739158159033e-01  1.2066817344822238e+00  7.5115590120516273e-01  6.6115526808501768e-01  1.2251486627750414e+00  1.1463765865583133e+00  1.2293630212283204e+00  1.3001085045306469e+00  1.2384748712597704e+00  6.7546786237828937e-01  8.3380858376312084e-01  1.0247166114207953e+00  1.2345918026280545e+00  1.3014616781321144e+00  1.2982333796754655e+00  6.1772853393873650e-01  1.1639253212626215e+00  1.0102634944574280e+00  4.5918682537340355e-01  4.7786095910951593e-01  1.3297889753404846e+00  5.0702831387442848e-01  4.6579139022790356e-01  3.7544596166969174e-01  1.4905723253829550e-01  3.8295863030419658e-01  7.8817081804563149e-01  5.8921776080472521e-01  1.5829760179301464e-01  1.7563396098088313e-01  1.0275351735239402e+00  1.5097757134807777e-01  6.2670413513096446e-01  8.0559511687528962e-01  8.9661824296226267e-01  5.3374809795750033e-01  8.8024598360671413e-01  1.5628743608362863e-01  4.3196947040075462e-01  1.4653467642301449e-01  1.3535740855208740e+00  1.3117988971819823e+00  1.6310840328286200e-01  5.5171915322246456e-01  5.9733611705017964e-01  3.5718997079450832e-01  1.5450647376885812e-01  1.5354893185805976e-01  1.5129543268434115e-01  3.6433373734191049e-01  8.0711138466825816e-01  6.2647881202294209e-01  1.4499462551978148e-01  1.4805906680519348e-01  1.0074060435491266e+00  4.4640331037318765e-01  4.3039340145651422e-01  1.3363260410195503e+00  1.3548375493591920e+00  1.3737630372665373e+00  1.2666856971226301e+00  1.0738036599137550e+00  8.0907343054757641e-01  1.0121836969337554e+00  9.7383226681493884e-01  3.6874916241634287e-01  6.5704464378571836e-01  4.9674878191785266e-01  3.9166656071412126e-01  3.4924979057566158e-01  3.7262190054427957e-01  3.9702189310966651e-01  1.4690095568644410e-01  1.1470827365173519e+00  9.8917594448622137e-01  9.2625332075997135e-01  5.1887727242968962e-01  3.5194727549609373e-01  3.8526843108418019e-01  7.3940360538221805e-01  6.9622262184328554e-01  1.1390365869038905e+00  1.0159907768279068e+00  4.9194546113079402e-01  1.1238044425000326e+00  9.7190086709348411e-01  1.5574659374157196e-01  1.2128565588546993e+00  5.3497108244116298e-01  6.8965581610394056e-01  1.1160555890698978e+00  6.3077388966454839e-01  9.8707984975297514e-01  7.0423374315317466e-01  5.0705302155968723e-01  1.0052334306930053e+00  1.2809194922343021e+00  3.2706661873982312e-01  1.4424705477666161e-01  5.5112157085825675e-01  7.8347261290528591e-01  1.3659304133298855e+00  8.0635711990087944e-01  8.1872978730333112e-01  3.5866048733706130e-01  5.4687993793527145e-01  8.6829709786555009e-01  3.7626300860241713e-01  7.0209864777846942e-01  5.0524112966823020e-01  3.2733615420273587e-01  7.6723123350225586e-01  4.8082318662552093e-01  3.5143416514903170e-01  5.7473164846243763e-01  3.4648933450798858e-01  8.5374965186052121e-01  1.3696191522406675e-01  1.5090444070261683e-01  3.2572254262548472e-01  6.6884811494944407e-01  1.0711676793166178e+00  8.8734341587548360e-01  1.3586811444445592e+00  8.5262251809532563e-01  6.4849884460149154e-01  1.2896981322751613e+00  4.7546282594817191e-01  6.6851092268317402e-01  3.6393049353106649e-01  1.0129261700393355e+00  3.0578094652908039e-01  1.4818722491699271e-01  3.5549140074096408e-01  4.0247337782081266e-01  3.7744741604661658e-01  1.3327202931323181e+00  3.8654994787549579e-01  1.4359325994942290e-01  1.4508531137863426e-01  9.2360373071018864e-01  5.2429811845025553e-01  6.7512402576352037e-01  3.3287760583317300e-01  1.2632898998065272e+00  1.2933117531276599e+00  1.0711718610189009e+00  1.3519715268879231e+00  1.3326403013835758e-01  6.0654495538016562e-01  1.3437956234333146e+00  1.3746276302209446e+00  3.9758272993893612e-01  1.2360046536394123e+00  9.9889060735297519e-01  1.1899802831736568e+00  8.1079273407686370e-01  8.8552319991240314e-01  5.3961120208974456e-01  5.9046293000903172e-01  1.0066684672190060e+00  9.6889812320696445e-01  1.1819198763602143e+00  1.8656599841886901e-01  3.4515272805370451e-01  5.6788769079108814e-01  5.5491018001687697e-01  5.5147196010686028e-01  9.3193060076737200e-01  1.2871427161156823e+00  1.0094926135962587e+00  1.3058333095546870e+00  1.1420604569453623e+00  1.0241049213862237e+00  8.4819451632891274e-01  1.2083718668200041e+00  1.0039461611713392e+00  1.3108286304132297e+00  1.2406244759851177e+00  1.1797646051586903e+00  7.0600284782206635e-01  1.1313142989776244e+00  1.0581095038119941e+00  1.2563490132183557e+00  9.5919620952612161e-01  9.5005305381874328e-01  8.6051330180275387e-01  9.8945351708375984e-01  8.3186522117776573e-01  1.2574155214641682e+00  1.2936976102320574e-01  1.5596193724018947e-01  1.0795605347246937e+00  1.3161735137160491e+00  1.1315204231717881e+00  7.9003057316316883e-01  6.8132229621176232e-01  1.0420146507582870e+00  6.4065276096966417e-01  6.9927671231331401e-01  8.6512208221954767e-01  7.1568586703171799e-01  1.3475012169869402e-01  7.8030131633337474e-01  1.3617582637562915e+00  1.2448252856958617e+00  2.3800979907498929e-01  1.4813439414015661e-01  4.7751012365227818e-01  1.4849232323494460e-01  3.3900408422551237e-01  6.1762201821208040e-01  8.8904643703503261e-01  9.8231187636937012e-01  1.1836398581398535e+00  1.3295766241522730e-01  3.6887260005423628e-01  1.5139718449186995e-01  1.2973469181339414e-01  1.3529304927043491e+00  1.4541581879447016e-01  8.3471500474916616e-01  9.9120297083301268e-01  9.0150012087378162e-01  3.1225495133005438e-01  3.1194779309137122e-01  6.4098463001816364e-01  7.3596588836228161e-01  8.0319229779889312e-01  1.0895624560342358e+00  1.0603903786867386e+00  1.1222483042025619e+00  5.2908743108735112e-01  1.8738771842171681e-01  1.0413958943134700e+00  1.1370679669910275e+00  1.1143298937816721e+00  1.2107372336697932e+00  8.5258459335168157e-01  8.9503247171883293e-01  1.0043688636165677e+00  4.2999924082584517e-01  7.3152054216832196e-01  5.5636435306612053e-01  1.1042695389694110e+00  1.5863654646463984e-01  8.6759287129372642e-01  1.3147335196971315e+00  1.3510520308582854e+00  5.5120818084112921e-01  1.1752382708679636e+00  1.2122933291606461e-01  1.1208095988337496e+00  4.8687458491816415e-01  7.4713794469546757e-01  5.9403958105406696e-01  3.2937912050165286e-01  5.2750450132099