<?xml version="1.0"?>
<VTKFile type="UnstructuredGrid"  version="0.1"  >
<UnstructuredGrid>
<Piece  NumberOfPoints="3238" NumberOfCells="6293">
<Points>
<DataArray  type="Float64"  NumberOfComponents="3"  format="ascii">0.9486832980505138 0 0  0.9475040099727444 0.047287959202839 0  0.9439690776354089 0.09445835308830697 0  0.9380872894372694 0.1413939086249357 0  0.9298732684305336 0.1879779366263939 0  0.9193474359656434 0.23409462185919 0  0.906535960920579 0.279629310977591 0  0.8914706946409063 0.3244687975699048 0  0.8741890917523123 0.3685016036074568 0  0.8547341170425047 0.4116182565965337 0  0.8331541386439797 0.453711561744252 0  0.809502807783224 0.4946768684617026 0  0.7838389253953122 0.5344123305418039 0  0.7562262959355172 0.5728191593650196 0  0.7267335687513813 0.6098018695034324 0  0.6954340674096222 0.6452685161125631 0  0.6624056074021922 0.6791309235207397 0  0.6277303026847052 0.7113049044477118 0  0.5914943615282048 0.741710469307493 0  0.5537878721918187 0.7702720250750756 0  0.514704578949153 0.7969185632226012 0  0.4743416490252568 0.8215838362577492 0  0.4327994310235916 0.8442065224254403 0  0.3901812054435905 0.8647303781633826 0  0.3465929279090647 0.8831043779324287 0  0.3021429657458285 0.8992828410741055 0  0.2569418285634513 0.9132255453799296 0  0.211101893510957 0.9248978270901541 0  0.1647371258895251 0.9342706670733373 0  0.1179627958167953 0.9413207629724764 0  0.07089519164719264 0.9460305871383375 0  0.02365133086075582 0.9483884302059546 0  -0.02365133086075571 0.9483884302059546 0  -0.07089519164719252 0.9460305871383375 0  -0.1179627958167952 0.9413207629724764 0  -0.164737125889525 0.9342706670733373 0  -0.2111018935109568 0.9248978270901541 0  -0.2569418285634511 0.9132255453799297 0  -0.3021429657458284 0.8992828410741056 0  -0.3465929279090646 0.8831043779324288 0  -0.3901812054435902 0.8647303781633827 0  -0.4327994310235911 0.8442065224254405 0  -0.4743416490252571 0.821583836257749 0  -0.5147045789491529 0.7969185632226014 0  -0.5537878721918184 0.7702720250750758 0  -0.5914943615282047 0.7417104693074931 0  -0.627730302684705 0.711304904447712 0  -0.6624056074021921 0.6791309235207398 0  -0.6954340674096222 0.6452685161125631 0  -0.7267335687513812 0.6098018695034326 0  -0.7562262959355172 0.5728191593650196 0  -0.783838925395312 0.5344123305418041 0  -0.8095028077832239 0.4946768684617027 0  -0.8331541386439798 0.4537115617442519 0  -0.8547341170425046 0.4116182565965338 0  -0.8741890917523124 0.3685016036074567 0  -0.8914706946409062 0.324468797569905 0  -0.9065359609205789 0.2796293109775914 0  -0.9193474359656433 0.2340946218591902 0  -0.9298732684305336 0.1879779366263939 0  -0.9380872894372694 0.141393908624936 0  -0.9439690776354089 0.09445835308830704 0  -0.9475040099727444 0.0472879592028393 0  -0.9486832980505138 1.161801964362116e-16 0  -0.9475040099727444 -0.04728795920283906 0  -0.9439690776354089 -0.0944583530883068 0  -0.9380872894372694 -0.1413939086249357 0  -0.9298732684305338 -0.1879779366263937 0  -0.9193474359656434 -0.23409462185919 0  -0.9065359609205791 -0.2796293109775908 0  -0.8914706946409063 -0.3244687975699048 0  -0.8741890917523123 -0.3685016036074569 0  -0.8547341170425047 -0.4116182565965337 0  -0.8331541386439799 -0.4537115617442517 0  -0.809502807783224 -0.4946768684617024 0  -0.7838389253953122 -0.5344123305418039 0  -0.7562262959355173 -0.5728191593650194 0  -0.7267335687513813 -0.6098018695034324 0  -0.6954340674096223 -0.6452685161125629 0  -0.6624056074021922 -0.6791309235207396 0  -0.6277303026847055 -0.7113049044477116 0  -0.5914943615282049 -0.7417104693074928 0  -0.5537878721918191 -0.7702720250750751 0  -0.5147045789491528 -0.7969185632226014 0  -0.4743416490252565 -0.8215838362577493 0  -0.4327994310235917 -0.8442065224254401 0  -0.3901812054435904 -0.8647303781633826 0  -0.3465929279090654 -0.8831043779324285 0  -0.302142965745829 -0.8992828410741054 0  -0.2569418285634507 -0.9132255453799298 0  -0.2111018935109571 -0.9248978270901541 0  -0.164737125889525 -0.9342706670733373 0  -0.1179627958167959 -0.9413207629724762 0  -0.07089519164719296 -0.9460305871383375 0  -0.02365133086075594 -0.9483884302059546 0  0.02365133086075559 -0.9483884302059546 0  0.07089519164719262 -0.9460305871383375 0  0.1179627958167947 -0.9413207629724765 0  0.1647371258895247 -0.9342706670733374 0  0.2111018935109567 -0.9248978270901541 0  0.2569418285634512 -0.9132255453799296 0  0.3021429657458287 -0.8992828410741055 0  0.3465929279090643 -0.8831043779324289 0  0.3901812054435901 -0.8647303781633827 0  0.4327994310235914 -0.8442065224254404 0  0.474341649025257 -0.8215838362577491 0  0.5147045789491531 -0.7969185632226011 0  0.5537878721918182 -0.7702720250750759 0  0.5914943615282046 -0.7417104693074931 0  0.6277303026847045 -0.7113049044477123 0  0.6624056074021923 -0.6791309235207396 0  0.6954340674096223 -0.6452685161125629 0  0.7267335687513811 -0.6098018695034327 0  0.756226295935517 -0.5728191593650197 0  0.7838389253953117 -0.5344123305418045 0  0.8095028077832241 -0.4946768684617024 0  0.8331541386439795 -0.4537115617442524 0  0.8547341170425046 -0.4116182565965339 0  0.8741890917523123 -0.3685016036074568 0  0.891470694640906 -0.3244687975699055 0  0.9065359609205789 -0.2796293109775915 0  0.9193474359656433 -0.2340946218591903 0  0.9298732684305336 -0.187977936626394 0  0.9380872894372694 -0.1413939086249356 0  0.9439690776354088 -0.09445835308830756 0  0.9475040099727444 -0.04728795920283941 0  -1.110223024625157e-16 0 0  0.09401819085916749 0.4650811898201446 0  -0.1170837026517897 -0.4598166372700095 0  0.3396710376326679 -0.3313057795005979 0  -0.3985831684342213 0.2574323040682528 0  0.4497812206361214 0.1511184532081793 0  -0.4678296522449308 -0.1836096083159234 0  -0.2355895500368295 0.5588844465176851 0  0.6052680571897296 -0.13814848431036 0  0.4316692651305813 0.4652288238608486 0  0.1699440018198525 -0.6040168882337353 0  -0.4163959192923318 -0.4962413327582046 0  -0.642769633956783 0.08054948543602583 0  -0.1115343976851466 0.2645908534915992 0  -0.1931670123238877 -0.1956285404753415 0  -0.2498407161687224 0.05177370136134687 0  5.898059818321144e-17 0.6981687943722161 0  -0.483109708437092 0.4979263437835442 0  0.361822037928239 -0.08258351904766598 0  0.4140141091090378 -0.566746635611325 0  0.6929212426656604 0.09538900823688645 0  -0.0577528169651628 -0.6994812675480986 0  0.2627635891281025 0.6484391215838409 0  0.1382745535810828 0.2140908845129365 0  0.1054207391253911 -0.3746875801437122 0  0.5845251382931255 -0.3858631758496659 0  -0.6990994377782311 -0.1595648846227037 0  0.6286160902717877 0.3271574405247115 0  -0.6370624647935379 0.3175922410853823 0  -0.6124653864901638 -0.3738489675350367 0  -0.2494905375702229 -0.6197712340060334 0  -0.4462945377711946 0.06630684398331937 0  0.154085691826424 -0.1588211969343469 0  0.2628873183017176 0.3654604251354111 0  -0.2806326729121043 -0.3638673359729195 0  0.2026367527909965 0.03002855433820255 0  -0.1883118667610724 0.7395472415971669 0  -0.3689568220919447 0.6775183381377181 0  -0.01993573429158397 -0.1734976089647549 0  -0.06367146275187838 0.5369808941678446 0  -0.3316788968411377 0.416048485101486 0  0.7214844899758113 -0.2726059376698902 0  0.7720971247867674 -0.09675632267405895 0  0.1158073085217154 -0.7683312895489415 0  0.3018176618408421 -0.7159960909166414 0  0.4736984522064285 0.6253687923070728 0  0.5997774220600344 0.495521041348345 0  0.5469845192899859 0.01694506421294018 0  0.4856555657620147 -0.2528582988922201 0  0.2423446599045919 -0.4599048318856052 0  0.01521443790310079 -0.5542414116777824 0  -0.3574093932547061 -0.06723838122191451 0  -0.1666092886506407 0.4146684525890751 0  -0.4115626391796692 -0.6642315991087294 0  0.2992692056075354 0.2085319774104712 0  -0.572142060044865 -0.06268399171098044 0  -0.4371838101656676 -0.3391145623819656 0  -0.7707361814220313 0.1759155038859614 0  -0.5659336192050233 -0.5519960729153512 0  -0.781552063470025 -0.01355730092482357 0  0.4696031588163752 0.3098387714856638 0  -0.0407097757674429 -0.3260896361090374 0  0.1559699745134315 0.7715390038889668 0  -0.5407358600344384 0.1966829475589161 0  -0.1986272613426354 -0.7678844928272964 0  0.5718291349409204 -0.5447036247449454 0  0.03058522588194268 0.3244992985667739 0  -0.253677331372863 0.2056171147481587 0  -0.1073780288228645 0.1105396375341932 0  -0.6367212858270217 0.4731834134190286 0  0.2931219035594987 0.5069630201331456 0  0.7563577705703616 0.2377948341003486 0  0.3420380570748312 0.05826637322450373 0  -0.1206725986386512 -0.07402828271247157 0  -0.3322725603356667 -0.2301646198664473 0  -0.7419042025048581 -0.3015255626410849 0  0.1195701669044717 0.6108932180062702 0  -0.5015416239321893 0.635717225788853 0  0.02737692077249736 0.134017139808744 0  0.3773860468351642 0.7206094891915363 0  0.812860493436187 0.03242610295987979 0  -0.07388611981097105 0.8111052309222055 0  -0.2442959246965964 -0.4892922127605825 0  0.7135655733810858 -0.4024692785058807 0  -0.3642932467066346 0.5484789362268634 0  -0.4524881480946273 0.3735876073978892 0  0.2099213516485349 -0.2848275062564233 0  0.3122478006637144 -0.2035159833569798 0  0.43109624127659 -0.6963837980763679 0  -0.004731464407071888 -0.8190067012611293 0  0.5600613423512718 0.2179439150874347 0  0.4468733578206618 -0.4269132077142946 0  0.4872830744017452 -0.09398863600514806 0  0.6664633094267685 -0.02789868416369569 0  -0.1060590692061801 -0.5842636330575839 0  0.2930869539360575 -0.5926370091989965 0  0.7165056531269813 0.4136747317087512 0  -0.6713889199795591 -0.4826957611142691 0  -0.1650615436669499 -0.3170959485608871 0  -0.7560359509185862 0.3411364121550141 0  -0.8181202307149236 -0.1442566701384753 0  -0.5906147236861463 -0.2403599348016739 0  0.1272020529197239 -0.4923009383391831 0  -0.1391534729758148 0.6301655208396788 0  -0.3568886656162428 0.1455060335331444 0  0.06164593118022811 -0.2623143376591542 0  -0.2389144395603171 -0.06622081533685589 0  -0.3247128298437102 
[...]
<PointData  Scalars="f_28-2"> 
<DataArray  type="Float64"  Name="f_28-2"  format="ascii">0.0000000000000000e+00  0.0000000000000000e+00  0.0000000000000000e+00  0.0000000000000000e+00  0.0000000000000000e+00  0.0000000000000000e+00  0.0000000000000000e+00  0.0000000000000000e+00  0.0000000000000000e+00  0.0000000000000000e+00  0.0000000000000000e+00  0.0000000000000000e+00  0.0000000000000000e+00  0.0000000000000000e+00  0.0000000000000000e+00  0.0000000000000000e+00  0.0000000000000000e+00  0.0000000000000000e+00  0.0000000000000000e+00  0.0000000000000000e+00  0.0000000000000000e+00  0.0000000000000000e+00  0.0000000000000000e+00  0.0000000000000000e+00  0.0000000000000000e+00  0.0000000000000000e+00  0.0000000000000000e+00  0.0000000000000000e+00  0.0000000000000000e+00  0.0000000000000000e+00  0.0000000000000000e+00  0.0000000000000000e+00  0.0000000000000000e+00  0.0000000000000000e+00  0.0000000000000000e+00  0.0000000000000000e+00  0.0000000000000000e+00  0.0000000000000000e+00  0.0000000000000000e+00  0.0000000000000000e+00  0.0000000000000000e+00  0.0000000000000000e+00  0.0000000000000000e+00  0.0000000000000000e+00  0.0000000000000000e+00  0.0000000000000000e+00  0.0000000000000000e+00  0.0000000000000000e+00  0.0000000000000000e+00  0.0000000000000000e+00  0.0000000000000000e+00  0.0000000000000000e+00  0.0000000000000000e+00  0.0000000000000000e+00  0.0000000000000000e+00  0.0000000000000000e+00  0.0000000000000000e+00  0.0000000000000000e+00  0.0000000000000000e+00  0.0000000000000000e+00  0.0000000000000000e+00  0.0000000000000000e+00  0.0000000000000000e+00  0.0000000000000000e+00  0.0000000000000000e+00  0.0000000000000000e+00  0.0000000000000000e+00  0.0000000000000000e+00  0.0000000000000000e+00  0.0000000000000000e+00  0.0000000000000000e+00  0.0000000000000000e+00  0.0000000000000000e+00  0.0000000000000000e+00  0.0000000000000000e+00  0.0000000000000000e+00  0.0000000000000000e+00  0.0000000000000000e+00  0.0000000000000000e+00  0.0000000000000000e+00  0.0000000000000000e+00  0.0000000000000000e+00  0.0000000000000000e+00  0.0000000000000000e+00  0.0000000000000000e+00  0.0000000000000000e+00  0.0000000000000000e+00  0.0000000000000000e+00  0.0000000000000000e+00  0.0000000000000000e+00  0.0000000000000000e+00  0.0000000000000000e+00  0.0000000000000000e+00  0.0000000000000000e+00  0.0000000000000000e+00  0.0000000000000000e+00  0.0000000000000000e+00  0.0000000000000000e+00  0.0000000000000000e+00  0.0000000000000000e+00  0.0000000000000000e+00  0.0000000000000000e+00  0.0000000000000000e+00  0.0000000000000000e+00  0.0000000000000000e+00  0.0000000000000000e+00  0.0000000000000000e+00  0.0000000000000000e+00  0.0000000000000000e+00  0.0000000000000000e+00  0.0000000000000000e+00  0.0000000000000000e+00  0.0000000000000000e+00  0.0000000000000000e+00  0.0000000000000000e+00  0.0000000000000000e+00  0.0000000000000000e+00  0.0000000000000000e+00  0.0000000000000000e+00  0.0000000000000000e+00  0.0000000000000000e+00  0.0000000000000000e+00  0.0000000000000000e+00  0.0000000000000000e+00  0.0000000000000000e+00  0.0000000000000000e+00  2.9634369051481607e-01  1.4746925664628571e-01  1.4927557612657011e-01  1.4673815008679508e-01  1.4949620439131353e-01  1.5179214694556253e-01  1.3219389034267337e-01  7.2092765836040365e-02  5.9553691065335652e-02  6.2388466652684403e-02  6.3012407358629258e-02  4.6827930867104822e-02  4.5636276544135490e-02  2.4145196083564405e-01  2.5035093605309666e-01  2.5561116917610177e-01  3.0747439428561885e-02  3.0507875392593423e-02  2.0817220861191271e-01  2.7088665546038147e-02  2.8647095110620149e-02  2.6620821589261840e-02  2.6714973384468366e-02  2.5492427187344574e-01  1.9130870082750911e-01  2.3299569670220358e-02  2.1273289977243370e-02  2.1264691882316968e-02  2.7547725139212650e-02  1.5781532266844426e-02  3.9761661139377409e-02  1.6634689733644581e-01  2.6747045673299008e-01  1.6068300026331267e-01  1.5534802656589339e-01  2.7019717566004742e-01  1.6363469040574972e-02  2.3815480472205577e-02  2.7812623033401129e-01  1.1739600906461448e-01  1.1615575339088145e-01  1.9799674933304340e-02  2.1550640368406173e-02  1.9682908425170627e-02  1.6325061109893388e-02  2.1359798188811428e-02  2.5781958449724387e-02  1.0146901930146777e-01  1.0510061245289515e-01  1.2327514372892605e-01  1.0084950981926735e-01  2.0499727405684370e-01  1.6311101047651813e-01  2.3146828163546476e-02  2.0287861284328693e-01  8.3277378363981372e-02  9.8028531162767898e-02  2.1985081253471161e-02  2.6605087650368623e-02  2.6077177454376009e-02  9.4651183920198070e-02  2.2966663578216531e-01  2.8037879728752883e-02  9.1676033069144944e-02  2.7077951344668720e-02  2.0204259368378316e-02  2.2429501790605294e-01  2.2490061725330804e-01  2.8190032293649936e-01  2.7747628827753602e-02  8.3340518081345363e-02  2.6164460734374295e-02  2.1549881673236082e-01  2.8547413832937912e-01  1.8608656648290842e-01  2.6617752039277475e-02  6.5360897885282501e-02  3.2511150212895724e-02  2.9011027283297969e-01  2.8724375442462667e-02  2.9312195577909071e-02  3.2043854394804505e-02  1.0875094743208626e-01  2.8283294110052429e-02  4.2287270825887950e-02  8.1948500399886354e-02  2.1169072666360908e-01  2.0279972483679307e-01  3.3664128574947251e-02  3.5465563723004925e-02  7.2103602872492636e-02  6.8250950531272725e-02  1.3645033450636471e-01  4.5952700657357938e-02  7.5135646105219223e-02  4.3536762442109307e-02  3.4163850605133550e-02  3.7368139599024984e-02  2.1371305497994464e-01  3.3133091219433551e-02  3.4443886483798078e-02  6.0598062256169725e-02  1.2885977989627226e-01  4.7991743172924310e-02  1.9491840029350832e-01  2.5092160545532033e-01  2.6304548187828231e-01  3.4448139976739969e-02  4.0309726858275254e-02  3.7915670086652038e-02  2.0947516073473499e-01  1.7141093930493920e-01  3.1247085061772987e-02  1.7430842754415243e-01  3.4687060613416767e-02  3.1818975884648298e-02  3.3227491824840576e-02  4.1177361446149550e-02  2.0274055185166384e-01  2.4855888760302741e-01  2.8547933014263327e-01  3.4514702694048466e-02  2.8944119245650400e-02  1.5225729502122820e-01  1.5240802950065754e-01  3.4424259173663124e-02  3.7465997072107127e-02  3.6353632085405707e-02  1.6220524176547454e-01  1.6832288199522027e-01  3.7982599307390778e-02  2.9442177165598948e-02  1.0271156824372381e-01  3.3979077186025199e-02  3.1486474719789860e-02  2.9062466420725186e-01  2.5416111433094896e-01  1.0231184419066094e-01  2.4936363525824204e-01  4.2119437313052621e-02  3.7440700444493352e-02  9.9709003908589638e-02  3.6384286082878220e-02  4.0980112399661275e-02  6.8502037036272945e-02  9.7182418299789949e-02  2.1371833494306491e-02  2.1776811130118726e-01  1.0084454129284728e-01  3.7055094697935179e-02  1.5841645488079437e-01  1.0685820754492227e-01  3.4509518892052900e-02  4.2402092380625873e-02  2.0994189687768111e-01  3.0081481585199219e-02  2.0722338191193127e-02  1.9390340439854895e-02  1.6335816701579678e-01  2.0536351600992062e-01  2.3765166602853355e-02  1.4388692450756327e-01  2.6732859830156247e-01  1.0594881920750258e-02  2.1732265975577963e-02  9.8392450451615959e-02  1.6050751595079227e-01  2.7712562859465650e-01  2.1767341290545805e-01  2.0496628610190273e-01  4.3599976319310951e-02  4.3359811704031796e-02  2.8722788319460185e-01  4.1222746224494192e-02  4.4018960822734501e-02  2.3728414842285835e-02  5.9563680035673888e-02  3.8535961727679445e-02  2.0445917909429092e-02  2.0751955299262940e-02  4.0152640452814421e-02  1.4436372333191111e-01  6.0263918548795210e-02  1.0562017035114649e-01  1.6223279823296571e-01  4.0166624607122815e-02  4.2116424093187804e-02  1.8213474548941480e-01  4.0695933652209082e-02  2.9221006562141616e-01  3.9394714714615871e-02  3.9028448367220768e-02  2.6143092597664813e-01  4.7270078016969197e-02  1.5404718774263373e-01  1.3656751736520005e-02  6.0558403152373284e-02  1.1549973467689363e-01  1.7890184320669852e-02  3.3220552341656835e-02  3.0642732363864101e-02  7.9309911875880310e-02  1.1473268932979035e-01  6.8682237808254595e-02  2.3044446602365418e-02  3.6891453702478948e-02  4.4665382087008758e-02  4.0786497074883452e-02  4.7024017753856874e-02  2.0886756559367017e-02  2.4234188715187907e-01  2.3348157490136422e-02  2.2016468758331343e-02  4.1112148841543135e-02  4.6952158919005671e-02  2.7673950111102030e-01  1.0240898240405361e-01  2.7195654216856879e-01  2.0587650344182577e-02  8.0826328022413019e-02  2.6954833420788410e-01  4.3033037182296507e-02  1.0233870707941937e-01  5.6540471817406318e-02  8.4351180311895965e-02  5.8209602659838530e-02  1.5952131336327949e-02  6.4603365345690320e-02  2.3545843325135186e-02  2.0316385169302210e-02  2.4072988989084021e-01  4.4895830600692285e-02  2.0285335470316440e-02  4.1889467797203983e-02  4.8093970186958213e-02  1.9990598996382027e-02  7.7896051351684689e-02  1.3080090084207693e-01  5.4395396894710867e-02  4.4558736557086323e-02  1.5958859008369203e-01  9.8580927630627355e-02  1.8548124822273063e-01  8.7556980519899602e-02  2.2341835725334991e-02  5.0764978160071993e-02  2.6339377663050201e-01  5.4466802666038698e-02  1.2370519144879598e-01  3.7710252133724108e-02  1.3700664624111890e-02  2.3578608754510996e-01  1.4341452587448350e-01  1.1147725856957416e-01  1.4913552686387183e-01  1.9170353923019433e-02  1.5446938164751347e-02  4.1266589522854460e-02  3.9568674104620831e-02  4.4796222759209539e-02  1.4673826461679843e-01  2.1308971088284761e-02  6.6935129171720231e-02  1.4071517791832799e-01  3.9697636750416390e-02  2.3041542891278990e-01  1.5507130217379450e-02  2.0172007273689684e-02  2.0649865845229792e-02  3.2082910550283152e-02  2.9339448667881424e-01  1.1140046959320292e-01  2.5566733022145566e-01  1.8993637440780489e-01  1.8640648105236332e-01  2.5371313208430429e-01  2.1551549432655012e-01  1.9022583734090237e-01  4.4517908764097919e-02  5.3478210526876631e-02  3.2856589454968103e-02  5.9254723643852751e-02  2.7577174146200240e-01  3.9184498202020183e-02  5.1064521513497864e-02  4.0027798401742240e-02  2.1912768434654319e-02  2.2486520036312535e-01  4.5546029093150198e-02  2.3972246775004030e-01  4.2252571478338496e-02  2.9185810237558246e-01  2.2399193865535139e-01  1.2082963885357430e-01  4.2946420377164743e-02  1.4089251425730764e-02  2.3147194275828686e-01  1.0998472159414946e-01  2.6962517581937687e-02  4.4660203133386180e-02  4.1465204380806336e-02  1.8262123766294706e-02  3.4332541287128024e-02  2.3364053307880794e-01  2.3924005136544819e-02  2.2995884607195444e-02  3.9970357641950470e-02  1.3336693007540987e-01  6.8988889545516505e-02  3.9838834258682010e-02  1.0045584382112094e-01  1.9286731092516501e-01  3.9019604086345569e-02  4.1395384195814962e-02  1.2915260798031353e-01  4.8925160237761466e-02  6.6715238454469070e-02  1.5725488686038974e-01  1.5814749997671913e-02  8.9927714407373738e-02  3.7801338536517883e-02  4.3882568347360373e-02  1.8849502823813487e-02  8.1406107489842131e-02  2.4361463486247378e-01  1.8561928552026721e-01  2.0905395670222940e-01  7.4425435676560861e-02  2.7243436464236515e-01  2.2986969011666473e-02  3.6324103128814615e-02  2.9335747992701955e-01  3.7954453954697792e-02  2.2061570227916785e-01  6.2194846146881949e-02  1.5840342954212444e-01  2.0138906715170934e-02  1.2034045308961841e-01  2.2485891395764155e-02  2.4151137828845138e-02  2.5859439481184337e-02  4.0657192924653696e-02  1.9515228692264708e-01  1.9464244384327360e-02  1.8704798526919914e-01  3.8948029200818510e-02  1.7819319527371633e-01  4.2882880369875871e-02  1.1001968032105197e-01  2.3582563353428673e-01  2.7279841494941032e-01  6.5584014084989262e-02  4.1945141027699979e-02  2.0618377511245595e-02  2.4679074794608619e-01  1.4471667056707178e-02  6.9322194947104759e-02  1.6022982959871446e-01  1.7720669311572074e-01  1.8743510549397430e-01  4.3812971877394233e-02  4.0258993043988507e-02  3.7949351370034051e-02  3.8298212053381464e-02  1.4429484004507101e-01  5.0308937143292577e-02  2.5611432537550074e-02  6.2114348814339290e-02  4.1261778642640419e-02  1.2280086457671159e-01  2.9431612975633990e-02  9.7201159453826361e-02  4.1844912922969942e-02  1.7022737945057622e-02  1.8057764850206319e-02  2.4775978061225387e-01  2.9714252623069459e-01  2.0360986341067588e-02  1.0866930374986804e-01  4.7351117626836234e-02  3.5035090154593322e-02  3.9025700735317428e-02  2.8900242729274089e-02  4.2177400255823567e-02  1.1614469039280279e-01  2.8709222456182633e-02  1.7524322621466440e-01  4.8177902981264654e-02  4.1454575674317082e-02  2.8526289466242038e-02  1.9378631468694188e-01  4.6997733542884938e-02  2.2642707423544468e-02  2.5506165871076462e-02  1.7329899523135375e-01  1.2140929023380986e-01  9.7217051745638924e-02  2.0559789921513538e-02  4.7831238069352848e-02  9.4959589223045093e-02  1.0625469484258009e-01  2.3709276354153644e-01  1.8417145708124724e-01  2.2992716065912927e-01  2.9583519802956704e-02  3.8748443707077716e-02  3.5514361616733631e-02  4.0311250837761235e-02  1.7386156172319103e-02  7.1136178551756302e-02  1.4347526319306700e-02  3.7498274838964091e-02  1.9039155253536454e-02  3.9332609042348719e-02  2.3008611935747092e-01  8.0879868649283357e-02  4.2680877581066756e-02  8.0041358852463149e-02  2.7913619276916002e-01  2.7407796974575738e-01  2.8313753390157470e-01  4.2389551441869469e-02  3.1971910672956926e-02  2.6033856621432361e-02  1.2982390075853850e-01  1.6392732871044140e-02  3.8699079881109148e-02  1.8018115552870279e-01  4.1685359145155004e-02  5.4974457126021961e-02  2.0680040000380012e-01  1.7110328475878378e-01  3.5733907577623493e-02  3.7500868541265595e-02  3.0636709985363768e-02  3.7270318545971778e-02  2.0454018480194857e-02  7.3242770881748090e-02  4.5146698962501848e-02  9.4686751112412412e-02  1.9819381221142088e-01  6.0591071170495336e-02  3.3670646342429521e-02  1.7089137965165671e-01  1.7916497809113990e-01  1.0004652318901749e-01  4.6101421921858204e-02  2.1635890321076626e-01  5.1765948931891119e-02  2.6363789380707343e-02  2.2381932738050292e-01  1.9108312490530785e-01  2.3333467027938706e-01  2.7236971296234802e-01  2.3254756833530907e-01  2.8143822385300818e-02  7.4252009250108789e-02  1.4178034376423321e-01  2.3214104207707609e-01  2.6237210054262600e-01  2.5757774376226489e-01  2.1538833944148558e-02  2.0314706184148881e-01  1.3773487101101614e-01  2.0603281397356111e-02  2.0952274074190421e-02  2.7894612752061859e-01  1.6040201484818984e-02  2.1023720312227951e-02  3.2294825630354684e-02  3.9659011946835208e-02  2.8243088590109728e-02  6.4561601851025857e-02  2.0669572097513536e-02  3.7823174347441917e-02  3.8247343588101210e-02  1.4237067394231909e-01  3.7022328906269497e-02  2.5264860640148885e-02  6.5699310974141362e-02  9.6546659521816153e-02  1.6169561745894089e-02  9.2940810455965334e-02  3.8832024669902682e-02  2.4439347650462243e-02  3.1672997790066847e-02  2.8471951395660655e-01  2.6996544609210238e-01  3.5798905361332102e-02  1.5850299203270874e-02  2.4760156600595211e-02  3.2007329823576347e-02  3.8468212759890812e-02  3.5578668603204050e-02  3.5901565355885900e-02  3.1955897133115779e-02  6.6880877528244176e-02  2.4760018368766096e-02  3.8623665452939833e-02  3.6411710987783820e-02  1.3700213986763352e-01  2.7558181689077248e-02  3.2324386309209238e-02  2.7959832153005315e-01  2.8741251900216708e-01  2.9635679855803926e-01  2.4914021877524509e-01  1.6109298762193697e-01  6.1645980433245214e-02  1.3228119308642239e-01  1.2422473516106501e-01  3.5016622002247283e-02  2.8970683958832035e-02  2.0316653626167899e-02  2.7332071139529391e-02  3.1338912834718992e-02  2.5944698469993806e-02  2.7402115472292328e-02  3.5890400801277735e-02  1.9204719587934715e-01  1.2395176599352078e-01  1.0898377961792453e-01  7.8630244992147439e-03  3.2211901338390844e-02  2.9850747082538300e-02  5.3244717777701581e-02  4.3106565896059254e-02  1.9302761097478416e-01  1.3474490855257096e-01  1.8004722785952946e-02  1.7679381088683108e-01  1.2160631794221537e-01  3.7896647465655256e-02  2.2745252353050074e-01  1.8908877397789514e-02  3.9752169063899293e-02  1.7533007423313415e-01  2.6295271187576432e-02  1.2905085583721007e-01  4.6222273827187348e-02  1.4215532679067205e-02  1.3613770188385377e-01  2.5271598832563824e-01  3.7544369092185628e-02  3.9263693970389854e-02  8.9348815969352256e-03  5.1335581711351989e-02  2.9542916480287124e-01  7.2281466117858517e-02  7.1878473656754358e-02  2.5850886633450205e-02  1.9297227648021366e-02  8.4114972966645996e-02  3.1073176206694694e-02  4.3607107728973714e-02  1.4321331046760075e-02  3.1141809431934613e-02  5.5267198871385363e-02  2.0160612515918792e-02  3.1093350165322959e-02  1.9752758618798463e-02  3.4753130453364679e-02  8.7983586690001267e-02  3.4031549451278030e-02  3.6821069271411440e-02  3.6919067408590737e-02  2.9488612817827959e-02  1.5728684301754303e-01  8.4580217292110516e-02  2.9331506800719681e-01  7.7488704227594365e-02  2.9201011448716268e-02  2.5976814299550000e-01  2.4510992464206890e-02  3.6591354740120804e-02  3.2700219185368057e-02  1.4050601654466890e-01  3.3717131061273803e-02  3.8641653192691333e-02  2.7476189382561297e-02  2.7003421385762446e-02  2.9689145954689650e-02  2.8093177090418647e-01  2.4046581614891746e-02  3.9187440822681975e-02  3.4778919103283706e-02  1.0649625237386398e-01  1.6683045588185952e-02  3.8426886982232900e-02  3.3895155784870859e-02  2.4869441972896558e-01  2.6028963895470730e-01  1.5550117400768732e-01  2.8659010360508913e-01  3.7122342501538091e-02  2.1930883714079755e-02  2.8212866146960081e-01  2.9717187561435587e-01  2.3662150240937697e-02  2.3455720303354394e-01  1.2772930037021504e-01  2.1312910810159441e-01  6.3244805094478537e-02  9.0233632531122626e-02  1.9969198157250907e-02  2.4047120946145566e-02  1.2827038677281366e-01  1.1873181496707981e-01  2.1067066099703283e-01  4.1162882151817369e-02  3.4882300906707991e-02  1.6068493315648042e-02  2.7315354337164175e-02  1.4941014117366744e-02  1.1594114095962135e-01  2.5344365879405434e-01  1.3730010544808688e-01  2.6776535824097530e-01  1.9648324704110437e-01  1.4064637617637704e-01  7.7989884019710520e-02  2.2613010639131845e-01  1.3327103289729575e-01  2.7272053598102064e-01  2.3644545507281428e-01  2.0580076382160506e-01  4.1511821501621041e-02  1.7498932995431304e-01  1.5136821802626785e-01  2.4108838169832317e-01  1.1945263954494331e-01  1.1535090960543500e-01  8.2845834547457753e-02  1.2534910555570369e-01  7.1912176458066565e-02  2.4334649432259753e-01  3.0824328181391442e-02  3.9452635702875070e-02  1.6467528220531338e-01  2.7082184476747029e-01  1.8066989115124010e-01  6.0334479151185880e-02  3.8141127992547839e-02  1.5076847277127869e-01  2.5340478504888131e-02  3.9877653095904672e-02  8.5193851003452767e-02  3.8735110168753688e-02  3.6457504270075956e-02  5.5305474739168956e-02  2.9114715237176447e-01  2.3649311849884039e-01  4.1335079574903982e-02  3.4056302592234793e-02  1.3090110860769633e-02  3.3526651242966443e-02  3.4138761830050511e-02  2.5420791496602726e-02  8.9729729624306850e-02  1.2478654805846146e-01  2.0903298430403694e-01  3.0422057131411915e-02  3.0941615678079175e-02  3.6369579097577993e-02  3.3470182496835026e-02  2.9130219072006236e-01  4.1339500202715027e-02  7.2057629967137882e-02  1.2753693955756704e-01  9.0782063434168225e-02  3.6118904243492102e-02  3.7177162030524485e-02  2.4612343553251256e-02  4.7691642279349730e-02  5.8945982202576658e-02  1.6644990969794088e-01  1.6129571043827484e-01  1.8414740058297435e-01  2.1462113726412657e-02  3.8345292404848040e-02  1.4635381283969237e-01  1.8986109869410175e-01  1.7958097055419528e-01  2.1836281447232062e-01  8.1267858574444851e-02  9.7563165661359141e-02  1.3695215920692430e-01  2.3914161730930531e-02  4.9523411604091676e-02  1.7527086933598807e-02  1.7481195428847240e-01  3.9650061254811055e-02  8.9241538456605124e-02  2.6860014479968275e-01  2.7720452896084274e-01  2.0987438427634408e-02  2.0796940926018193e-01  3.1754166667644732e-02  1.8097565587704076e-01  1.8760114335864001e-02  4.4836104881076047e-02  2.6113803898065249e-02  3.5573205490498944e-02  1.9538592270736