<?xml version="1.0"?>
<VTKFile type="UnstructuredGrid"  version="0.1"  >
<UnstructuredGrid>
<Piece  NumberOfPoints="3238" NumberOfCells="6293">
<Points>
<DataArray  type="Float64"  NumberOfComponents="3"  format="ascii">0.9486832980505138 0 0  0.9475040099727444 0.047287959202839 0  0.9439690776354089 0.09445835308830697 0  0.9380872894372694 0.1413939086249357 0  0.9298732684305336 0.1879779366263939 0  0.9193474359656434 0.23409462185919 0  0.906535960920579 0.279629310977591 0  0.8914706946409063 0.3244687975699048 0  0.8741890917523123 0.3685016036074568 0  0.8547341170425047 0.4116182565965337 0  0.8331541386439797 0.453711561744252 0  0.809502807783224 0.4946768684617026 0  0.7838389253953122 0.5344123305418039 0  0.7562262959355172 0.5728191593650196 0  0.7267335687513813 0.6098018695034324 0  0.6954340674096222 0.6452685161125631 0  0.6624056074021922 0.6791309235207397 0  0.6277303026847052 0.7113049044477118 0  0.5914943615282048 0.741710469307493 0  0.5537878721918187 0.7702720250750756 0  0.514704578949153 0.7969185632226012 0  0.4743416490252568 0.8215838362577492 0  0.4327994310235916 0.8442065224254403 0  0.3901812054435905 0.8647303781633826 0  0.3465929279090647 0.8831043779324287 0  0.3021429657458285 0.8992828410741055 0  0.2569418285634513 0.9132255453799296 0  0.211101893510957 0.9248978270901541 0  0.1647371258895251 0.9342706670733373 0  0.1179627958167953 0.9413207629724764 0  0.07089519164719264 0.9460305871383375 0  0.02365133086075582 0.9483884302059546 0  -0.02365133086075571 0.9483884302059546 0  -0.07089519164719252 0.9460305871383375 0  -0.1179627958167952 0.9413207629724764 0  -0.164737125889525 0.9342706670733373 0  -0.2111018935109568 0.9248978270901541 0  -0.2569418285634511 0.9132255453799297 0  -0.3021429657458284 0.8992828410741056 0  -0.3465929279090646 0.8831043779324288 0  -0.3901812054435902 0.8647303781633827 0  -0.4327994310235911 0.8442065224254405 0  -0.4743416490252571 0.821583836257749 0  -0.5147045789491529 0.7969185632226014 0  -0.5537878721918184 0.7702720250750758 0  -0.5914943615282047 0.7417104693074931 0  -0.627730302684705 0.711304904447712 0  -0.6624056074021921 0.6791309235207398 0  -0.6954340674096222 0.6452685161125631 0  -0.7267335687513812 0.6098018695034326 0  -0.7562262959355172 0.5728191593650196 0  -0.783838925395312 0.5344123305418041 0  -0.8095028077832239 0.4946768684617027 0  -0.8331541386439798 0.4537115617442519 0  -0.8547341170425046 0.4116182565965338 0  -0.8741890917523124 0.3685016036074567 0  -0.8914706946409062 0.324468797569905 0  -0.9065359609205789 0.2796293109775914 0  -0.9193474359656433 0.2340946218591902 0  -0.9298732684305336 0.1879779366263939 0  -0.9380872894372694 0.141393908624936 0  -0.9439690776354089 0.09445835308830704 0  -0.9475040099727444 0.0472879592028393 0  -0.9486832980505138 1.161801964362116e-16 0  -0.9475040099727444 -0.04728795920283906 0  -0.9439690776354089 -0.0944583530883068 0  -0.9380872894372694 -0.1413939086249357 0  -0.9298732684305338 -0.1879779366263937 0  -0.9193474359656434 -0.23409462185919 0  -0.9065359609205791 -0.2796293109775908 0  -0.8914706946409063 -0.3244687975699048 0  -0.8741890917523123 -0.3685016036074569 0  -0.8547341170425047 -0.4116182565965337 0  -0.8331541386439799 -0.4537115617442517 0  -0.809502807783224 -0.4946768684617024 0  -0.7838389253953122 -0.5344123305418039 0  -0.7562262959355173 -0.5728191593650194 0  -0.7267335687513813 -0.6098018695034324 0  -0.6954340674096223 -0.6452685161125629 0  -0.6624056074021922 -0.6791309235207396 0  -0.6277303026847055 -0.7113049044477116 0  -0.5914943615282049 -0.7417104693074928 0  -0.5537878721918191 -0.7702720250750751 0  -0.5147045789491528 -0.7969185632226014 0  -0.4743416490252565 -0.8215838362577493 0  -0.4327994310235917 -0.8442065224254401 0  -0.3901812054435904 -0.8647303781633826 0  -0.3465929279090654 -0.8831043779324285 0  -0.302142965745829 -0.8992828410741054 0  -0.2569418285634507 -0.9132255453799298 0  -0.2111018935109571 -0.9248978270901541 0  -0.164737125889525 -0.9342706670733373 0  -0.1179627958167959 -0.9413207629724762 0  -0.07089519164719296 -0.9460305871383375 0  -0.02365133086075594 -0.9483884302059546 0  0.02365133086075559 -0.9483884302059546 0  0.07089519164719262 -0.9460305871383375 0  0.1179627958167947 -0.9413207629724765 0  0.1647371258895247 -0.9342706670733374 0  0.2111018935109567 -0.9248978270901541 0  0.2569418285634512 -0.9132255453799296 0  0.3021429657458287 -0.8992828410741055 0  0.3465929279090643 -0.8831043779324289 0  0.3901812054435901 -0.8647303781633827 0  0.4327994310235914 -0.8442065224254404 0  0.474341649025257 -0.8215838362577491 0  0.5147045789491531 -0.7969185632226011 0  0.5537878721918182 -0.7702720250750759 0  0.5914943615282046 -0.7417104693074931 0  0.6277303026847045 -0.7113049044477123 0  0.6624056074021923 -0.6791309235207396 0  0.6954340674096223 -0.6452685161125629 0  0.7267335687513811 -0.6098018695034327 0  0.756226295935517 -0.5728191593650197 0  0.7838389253953117 -0.5344123305418045 0  0.8095028077832241 -0.4946768684617024 0  0.8331541386439795 -0.4537115617442524 0  0.8547341170425046 -0.4116182565965339 0  0.8741890917523123 -0.3685016036074568 0  0.891470694640906 -0.3244687975699055 0  0.9065359609205789 -0.2796293109775915 0  0.9193474359656433 -0.2340946218591903 0  0.9298732684305336 -0.187977936626394 0  0.9380872894372694 -0.1413939086249356 0  0.9439690776354088 -0.09445835308830756 0  0.9475040099727444 -0.04728795920283941 0  -1.110223024625157e-16 0 0  0.09401819085916749 0.4650811898201446 0  -0.1170837026517897 -0.4598166372700095 0  0.3396710376326679 -0.3313057795005979 0  -0.3985831684342213 0.2574323040682528 0  0.4497812206361214 0.1511184532081793 0  -0.4678296522449308 -0.1836096083159234 0  -0.2355895500368295 0.5588844465176851 0  0.6052680571897296 -0.13814848431036 0  0.4316692651305813 0.4652288238608486 0  0.1699440018198525 -0.6040168882337353 0  -0.4163959192923318 -0.4962413327582046 0  -0.642769633956783 0.08054948543602583 0  -0.1115343976851466 0.2645908534915992 0  -0.1931670123238877 -0.1956285404753415 0  -0.2498407161687224 0.05177370136134687 0  5.898059818321144e-17 0.6981687943722161 0  -0.483109708437092 0.4979263437835442 0  0.361822037928239 -0.08258351904766598 0  0.4140141091090378 -0.566746635611325 0  0.6929212426656604 0.09538900823688645 0  -0.0577528169651628 -0.6994812675480986 0  0.2627635891281025 0.6484391215838409 0  0.1382745535810828 0.2140908845129365 0  0.1054207391253911 -0.3746875801437122 0  0.5845251382931255 -0.3858631758496659 0  -0.6990994377782311 -0.1595648846227037 0  0.6286160902717877 0.3271574405247115 0  -0.6370624647935379 0.3175922410853823 0  -0.6124653864901638 -0.3738489675350367 0  -0.2494905375702229 -0.6197712340060334 0  -0.4462945377711946 0.06630684398331937 0  0.154085691826424 -0.1588211969343469 0  0.2628873183017176 0.3654604251354111 0  -0.2806326729121043 -0.3638673359729195 0  0.2026367527909965 0.03002855433820255 0  -0.1883118667610724 0.7395472415971669 0  -0.3689568220919447 0.6775183381377181 0  -0.01993573429158397 -0.1734976089647549 0  -0.06367146275187838 0.5369808941678446 0  -0.3316788968411377 0.416048485101486 0  0.7214844899758113 -0.2726059376698902 0  0.7720971247867674 -0.09675632267405895 0  0.1158073085217154 -0.7683312895489415 0  0.3018176618408421 -0.7159960909166414 0  0.4736984522064285 0.6253687923070728 0  0.5997774220600344 0.495521041348345 0  0.5469845192899859 0.01694506421294018 0  0.4856555657620147 -0.2528582988922201 0  0.2423446599045919 -0.4599048318856052 0  0.01521443790310079 -0.5542414116777824 0  -0.3574093932547061 -0.06723838122191451 0  -0.1666092886506407 0.4146684525890751 0  -0.4115626391796692 -0.6642315991087294 0  0.2992692056075354 0.2085319774104712 0  -0.572142060044865 -0.06268399171098044 0  -0.4371838101656676 -0.3391145623819656 0  -0.7707361814220313 0.1759155038859614 0  -0.5659336192050233 -0.5519960729153512 0  -0.781552063470025 -0.01355730092482357 0  0.4696031588163752 0.3098387714856638 0  -0.0407097757674429 -0.3260896361090374 0  0.1559699745134315 0.7715390038889668 0  -0.5407358600344384 0.1966829475589161 0  -0.1986272613426354 -0.7678844928272964 0  0.5718291349409204 -0.5447036247449454 0  0.03058522588194268 0.3244992985667739 0  -0.253677331372863 0.2056171147481587 0  -0.1073780288228645 0.1105396375341932 0  -0.6367212858270217 0.4731834134190286 0  0.2931219035594987 0.5069630201331456 0  0.7563577705703616 0.2377948341003486 0  0.3420380570748312 0.05826637322450373 0  -0.1206725986386512 -0.07402828271247157 0  -0.3322725603356667 -0.2301646198664473 0  -0.7419042025048581 -0.3015255626410849 0  0.1195701669044717 0.6108932180062702 0  -0.5015416239321893 0.635717225788853 0  0.02737692077249736 0.134017139808744 0  0.3773860468351642 0.7206094891915363 0  0.812860493436187 0.03242610295987979 0  -0.07388611981097105 0.8111052309222055 0  -0.2442959246965964 -0.4892922127605825 0  0.7135655733810858 -0.4024692785058807 0  -0.3642932467066346 0.5484789362268634 0  -0.4524881480946273 0.3735876073978892 0  0.2099213516485349 -0.2848275062564233 0  0.3122478006637144 -0.2035159833569798 0  0.43109624127659 -0.6963837980763679 0  -0.004731464407071888 -0.8190067012611293 0  0.5600613423512718 0.2179439150874347 0  0.4468733578206618 -0.4269132077142946 0  0.4872830744017452 -0.09398863600514806 0  0.6664633094267685 -0.02789868416369569 0  -0.1060590692061801 -0.5842636330575839 0  0.2930869539360575 -0.5926370091989965 0  0.7165056531269813 0.4136747317087512 0  -0.6713889199795591 -0.4826957611142691 0  -0.1650615436669499 -0.3170959485608871 0  -0.7560359509185862 0.3411364121550141 0  -0.8181202307149236 -0.1442566701384753 0  -0.5906147236861463 -0.2403599348016739 0  0.1272020529197239 -0.4923009383391831 0  -0.1391534729758148 0.6301655208396788 0  -0.3568886656162428 0.1455060335331444 0  0.06164593118022811 -0.2623143376591542 0  -0.2389144395603171 -0.06622081533685589 0  -0.3247128298437102 
[...]
<PointData  Scalars="f_28-2"> 
<DataArray  type="Float64"  Name="f_28-2"  format="ascii">0.0000000000000000e+00  0.0000000000000000e+00  0.0000000000000000e+00  0.0000000000000000e+00  0.0000000000000000e+00  0.0000000000000000e+00  0.0000000000000000e+00  0.0000000000000000e+00  0.0000000000000000e+00  0.0000000000000000e+00  0.0000000000000000e+00  0.0000000000000000e+00  0.0000000000000000e+00  0.0000000000000000e+00  0.0000000000000000e+00  0.0000000000000000e+00  0.0000000000000000e+00  0.0000000000000000e+00  0.0000000000000000e+00  0.0000000000000000e+00  0.0000000000000000e+00  0.0000000000000000e+00  0.0000000000000000e+00  0.0000000000000000e+00  0.0000000000000000e+00  0.0000000000000000e+00  0.0000000000000000e+00  0.0000000000000000e+00  0.0000000000000000e+00  0.0000000000000000e+00  0.0000000000000000e+00  0.0000000000000000e+00  0.0000000000000000e+00  0.0000000000000000e+00  0.0000000000000000e+00  0.0000000000000000e+00  0.0000000000000000e+00  0.0000000000000000e+00  0.0000000000000000e+00  0.0000000000000000e+00  0.0000000000000000e+00  0.0000000000000000e+00  0.0000000000000000e+00  0.0000000000000000e+00  0.0000000000000000e+00  0.0000000000000000e+00  0.0000000000000000e+00  0.0000000000000000e+00  0.0000000000000000e+00  0.0000000000000000e+00  0.0000000000000000e+00  0.0000000000000000e+00  0.0000000000000000e+00  0.0000000000000000e+00  0.0000000000000000e+00  0.0000000000000000e+00  0.0000000000000000e+00  0.0000000000000000e+00  0.0000000000000000e+00  0.0000000000000000e+00  0.0000000000000000e+00  0.0000000000000000e+00  0.0000000000000000e+00  0.0000000000000000e+00  0.0000000000000000e+00  0.0000000000000000e+00  0.0000000000000000e+00  0.0000000000000000e+00  0.0000000000000000e+00  0.0000000000000000e+00  0.0000000000000000e+00  0.0000000000000000e+00  0.0000000000000000e+00  0.0000000000000000e+00  0.0000000000000000e+00  0.0000000000000000e+00  0.0000000000000000e+00  0.0000000000000000e+00  0.0000000000000000e+00  0.0000000000000000e+00  0.0000000000000000e+00  0.0000000000000000e+00  0.0000000000000000e+00  0.0000000000000000e+00  0.0000000000000000e+00  0.0000000000000000e+00  0.0000000000000000e+00  0.0000000000000000e+00  0.0000000000000000e+00  0.0000000000000000e+00  0.0000000000000000e+00  0.0000000000000000e+00  0.0000000000000000e+00  0.0000000000000000e+00  0.0000000000000000e+00  0.0000000000000000e+00  0.0000000000000000e+00  0.0000000000000000e+00  0.0000000000000000e+00  0.0000000000000000e+00  0.0000000000000000e+00  0.0000000000000000e+00  0.0000000000000000e+00  0.0000000000000000e+00  0.0000000000000000e+00  0.0000000000000000e+00  0.0000000000000000e+00  0.0000000000000000e+00  0.0000000000000000e+00  0.0000000000000000e+00  0.0000000000000000e+00  0.0000000000000000e+00  0.0000000000000000e+00  0.0000000000000000e+00  0.0000000000000000e+00  0.0000000000000000e+00  0.0000000000000000e+00  0.0000000000000000e+00  0.0000000000000000e+00  0.0000000000000000e+00  0.0000000000000000e+00  0.0000000000000000e+00  0.0000000000000000e+00  0.0000000000000000e+00  0.0000000000000000e+00  0.0000000000000000e+00  1.8546498521714134e+00  1.3162548267414840e+00  1.3144806754438831e+00  1.3202147407086939e+00  1.3196884266513920e+00  1.3166038615192974e+00  1.2434987062442613e+00  9.8000906653806796e-01  9.4011290448493778e-01  9.0544527921474538e-01  9.2315365647219971e-01  8.7194211007865541e-01  8.6874164663504716e-01  1.7120281849705905e+00  1.7274091268724441e+00  1.7459528002967193e+00  7.3292133114609892e-01  7.4704569571096058e-01  1.5673689531181931e+00  7.2683052604195253e-01  7.3450195319000644e-01  7.2445775044718796e-01  7.2986710755713124e-01  1.7535150322442417e+00  1.5252430230508105e+00  7.2704579980289330e-01  6.8041631606089792e-01  7.0819732236199917e-01  7.0026103249456406e-01  6.8293069971863962e-01  8.1523480191117470e-01  1.3761982427237498e+00  1.7710446961102246e+00  1.3797057801703538e+00  1.3542414559533731e+00  1.7866295472986136e+00  5.5710642525426035e-01  5.3515295373371852e-01  1.8082585404001932e+00  1.1467007676822969e+00  1.1712163365143862e+00  5.3094453207240511e-01  5.1454929206938249e-01  5.1922325838519101e-01  5.1835737531631687e-01  4.9510269309107841e-01  5.1488958729500123e-01  1.1305639940715997e+00  1.1327216327019396e+00  1.2008166192209297e+00  1.1111658754272491e+00  1.5817207721474227e+00  1.3880424635254038e+00  5.0366765597962104e-01  1.5810510629318655e+00  1.0580051121562126e+00  1.1163549183666690e+00  4.7941798116013529e-01  4.7993719129825085e-01  5.0223573727734350e-01  1.0920935021650200e+00  1.6529055201221947e+00  4.8826326921046131e-01  1.0617933065615455e+00  4.6985719208170340e-01  4.7967573242489098e-01  1.6564733364265096e+00  1.6533632144620791e+00  1.8144503784211605e+00  4.7034790470911714e-01  1.0349924982056979e+00  4.7289176666488114e-01  1.6204213227441877e+00  1.8202442298273971e+00  1.4893163285805084e+00  4.5234227696839030e-01  9.3622976083285636e-01  4.2555209382012571e-01  1.8220654801242870e+00  4.1304946518863994e-01  4.1227008085738842e-01  4.0854053443534394e-01  1.1331282171528845e+00  3.9318412567573763e-01  8.3998297746846406e-01  1.0305317083393177e+00  1.6057203833463576e+00  1.5629523042990097e+00  3.9515069952133941e-01  3.9647488334313241e-01  9.9466338362455664e-01  9.4972781261062234e-01  1.2595448408485423e+00  8.2068813162033050e-01  1.0123060156935679e+00  8.3590386256493854e-01  3.7098825627342524e-01  3.7218494767299132e-01  1.5964316759298038e+00  3.6897859046815729e-01  3.6215639216761603e-01  8.9847842469774108e-01  1.2292253211898103e+00  8.7945159920191573e-01  1.5358080945163344e+00  1.7382087462612295e+00  1.7536094461305936e+00  3.8406101962924488e-01  8.3303573978223922e-01  8.1591877958735781e-01  1.5832721784401826e+00  1.4088924918868175e+00  4.2444662599564698e-01  1.4252520481125490e+00  8.2057587028558854e-01  7.6390792724753764e-01  3.6354096998324187e-01  8.2067801517534777e-01  1.5498485686415338e+00  1.7449580890693779e+00  1.8335582568827113e+00  7.7815420845685124e-01  7.7933998728541654e-01  1.3382322445563464e+00  1.3285359872070601e+00  3.6012360558125717e-01  3.4393513615019805e-01  3.4654383225917806e-01  1.3800617780645146e+00  1.4089171966581360e+00  7.7098996529873975e-01  8.0083740997515362e-01  1.1135356796865559e+00  3.3798608931882057e-01  7.5529203971389969e-01  1.8349825726331961e+00  1.7436500643723722e+00  1.1092942823877900e+00  1.7488361734991658e+00  3.1893087340131554e-01  3.4882832285507065e-01  1.1009256441325590e+00  3.3279877528228241e-01  3.3302905864297261e-01  9.5245407848189445e-01  1.1206889224186012e+00  7.3772653318037218e-01  1.6075875857133530e+00  1.1193162172214992e+00  3.3848950931174066e-01  1.3460633897253864e+00  1.1411252341103131e+00  3.4247100945465159e-01  3.0695808100469935e-01  1.5994866750078438e+00  4.2502210581607419e-01  6.4363937796087822e-01  6.7352127683432084e-01  1.3875863760320133e+00  1.5703687431623787e+00  6.9486569926223163e-01  1.3050272545249701e+00  1.7670822008527673e+00  6.1692881046129899e-01  5.9897145240650618e-01  1.1232966297551867e+00  1.3726778162418956e+00  1.8120153429539334e+00  1.6484170511363827e+00  1.5719135545761711e+00  2.8411122387143878e-01  2.8735206418418885e-01  1.8120746086363992e+00  2.7889214274549345e-01  2.8117037001554118e-01  6.7049658683805158e-01  9.4082267405374154e-01  2.8886356601407720e-01  6.3820396995681217e-01  4.8018233827394580e-01  2.8592113780980000e-01  1.3066190950083649e+00  9.3058131229669683e-01  1.1339932115808709e+00  1.3872443494040465e+00  3.0351551031027652e-01  2.8435166745603252e-01  1.4657020912935854e+00  2.9788770007650317e-01  1.8398106251848638e+00  2.8295490487921704e-01  2.8741483561369724e-01  1.7616719657049011e+00  2.7086206198858798e-01  1.3551401185445855e+00  6.2189968012865782e-01  9.2614178253869195e-01  1.1727976452993565e+00  6.3322558887311720e-01  7.1190925990748721e-01  7.3246962152588269e-01  1.0124484924251762e+00  1.1860256434442453e+00  9.6893506568553645e-01  7.1678543963765540e-01  2.6515159044530040e-01  2.5735353268091343e-01  2.5550532545896426e-01  2.5793798740533336e-01  6.2239538121315563e-01  1.7169841163357729e+00  5.2793015526830234e-01  5.8850045206371404e-01  2.7284358485484927e-01  2.7633589312832968e-01  1.7995177421133313e+00  1.1158686382274219e+00  1.7964373428704461e+00  6.2942221535129939e-01  1.0257422730316317e+00  1.7950216283232774e+00  2.6603497775627077e-01  1.1195886637747541e+00  9.3249428956737646e-01  1.0210079877874696e+00  9.2352763694138507e-01  5.6737828546151592e-01  9.3631342094118297e-01  5.8216867248113324e-01  6.0106150908535239e-01  1.7146765068005825e+00  2.4324954052303996e-01  6.7736725374380691e-01  2.5069342060703120e-01  2.6074590438619000e-01  6.6109751153771057e-01  1.0031454047951365e+00  1.2369941950619860e+00  9.1905971520030971e-01  2.5338669385181900e-01  1.3615972095218136e+00  1.0864044195859928e+00  1.4832001279006224e+00  1.0416716160165169e+00  7.0355424329042893e-01  8.8040819644647894e-01  1.7685661156214474e+00  8.9588916486842851e-01  1.2039389802121374e+00  2.5580712363937008e-01  5.6971656395615444e-01  1.6865482515103065e+00  1.2932492647404654e+00  1.1471030136630602e+00  1.3436875018493810e+00  5.9788938563148797e-01  5.8204834129586014e-01  2.4941734115681330e-01  2.5542195972556564e-01  2.4838838808722141e-01  1.3535811754675537e+00  5.7787344448671685e-01  9.4046908769572024e-01  1.2921596552013026e+00  2.3355916268491100e-01  1.6621716061856218e+00  5.6190973722006132e-01  5.3963434596401372e-01  5.6278756454477041e-01  7.6929986675216500e-01  1.8400197631589466e+00  1.1570174944321365e+00  1.7506169058291403e+00  1.4966881365543552e+00  1.4909355992460194e+00  1.7525710998821360e+00  1.6351274003564362e+00  1.5087493589298377e+00  2.3178998543721385e-01  9.1437896570620747e-01  8.1001180663915517e-01  9.1398357568790423e-01  1.7961909033410814e+00  3.3182156738333940e-01  8.7660614838446793e-01  2.3830903525774244e-01  6.8155369285754464e-01  1.6546852709530167e+00  8.3569518958566025e-01  1.7105292814569952e+00  3.0629702830825722e-01  1.8456700345671968e+00  1.6486257399027033e+00  1.2224119777260338e+00  7.8686937434903670e-01  5.2025300185504142e-01  1.6943566534740782e+00  1.1274024624476644e+00  7.1749120151967383e-01  2.3775816433527858e-01  3.0458833490652693e-01  5.5808783626636893e-01  7.8183510903817866e-01  1.6856045971632538e+00  6.9697665290314015e-01  7.3138613679929021e-01  2.1249104958096524e-01  1.2245818498058501e+00  9.6463745963601011e-01  2.4471247862977949e-01  1.1384487329064119e+00  1.5090856779319841e+00  2.2418110698996321e-01  2.3387264992981552e-01  1.2324925315660593e+00  8.9016853068127033e-01  9.6593395950172745e-01  1.3451595463848576e+00  5.4036987110220713e-01  1.0684195868276167e+00  2.2779674386936485e-01  2.1289757710494880e-01  5.0630815624750269e-01  1.0329391628840034e+00  1.7239822739165056e+00  1.4756752778983846e+00  1.5793828123050291e+00  1.0186700939055642e+00  1.7792785897110972e+00  5.4727219954260975e-01  2.2990737637236480e-01  1.8448315942449478e+00  2.1248638828074184e-01  1.6392836958948649e+00  9.3694051487006358e-01  1.3828346628615029e+00  4.9521067510280820e-01  1.1952968144384470e+00  5.2625511053951946e-01  7.2444287272410535e-01  4.6744924920252284e-01  2.3479440874999902e-01  1.5522865525709306e+00  4.8842821108200518e-01  1.5034686389583056e+00  4.0071145584138862e-01  1.4710005358109479e+00  2.1202316012463798e-01  1.1432762575360906e+00  1.6857300487756068e+00  1.7877807561559458e+00  9.5209992283396638e-01  2.2471641689633912e-01  6.0490469677698633e-01  1.7440071135632578e+00  5.7847776085480218e-01  9.7102112379713379e-01  1.3765794682225110e+00  1.4587498003271322e+00  1.4676455463719595e+00  2.1430688613370849e-01  2.0196041618976082e-01  3.3064581652215258e-01  3.1284960313455978e-01  1.2942576577477238e+00  8.7219820926705127e-01  4.6886068523242708e-01  9.4057398314337082e-01  2.1758504424209374e-01  1.1972749844746400e+00  4.3466588413258128e-01  1.0789411606304726e+00  2.0680262372785893e-01  5.5971668278529929e-01  5.3541607479497189e-01  1.7309488055380153e+00  1.8469919436657269e+00  6.8122398196918499e-01  1.1505608304665427e+00  8.6964452373929790e-01  1.9981533882963737e-01  1.9630496970340575e-01  7.3716822882380417e-01  8.3132884778460225e-01  1.1665216058537853e+00  7.3634060740101737e-01  1.4529179289443208e+00  2.0557763790816103e-01  1.8590429909681311e-01  4.5455849045222874e-01  1.5357801679734249e+00  3.2326782477261445e-01  6.8729635581666215e-01  7.2581888815011897e-01  1.4255009560320269e+00  1.1823648766804051e+00  1.1025284449241748e+00  6.6806910121179364e-01  8.5101027265757345e-01  1.0781749126480398e+00  1.1569284239611723e+00  1.6991693570514328e+00  1.4966359847733273e+00  1.6638386103158502e+00  4.5340661282002909e-01  8.2274451534079696e-01  1.8891185867523788e-01  1.8335574369153390e-01  5.1178778710233463e-01  9.4942926770010205e-01  6.8381605840649884e-01  1.8499222097687637e-01  5.3626933137205668e-01  1.8143170732636088e-01  1.6800425855201291e+00  1.0200861737252398e+00  2.0895100091444457e-01  1.0011807694616837e+00  1.7965858983866179e+00  1.8071297485177582e+00  1.8174296141080415e+00  2.4900651356196488e-01  4.2459730167105481e-01  4.6166558545611786e-01  1.2516701280733633e+00  5.2527525938009145e-01  8.1656984530680776e-01  1.4462526114492933e+00  1.8093798073462947e-01  8.7487732964313603e-01  1.5881032479494601e+00  1.4439322627666205e+00  7.8868507608182037e-01  1.8005763250337400e-01  1.7298881172223951e-01  1.9571887615013014e-01  5.2696082260787325e-01  1.0100620411109749e+00  2.5322521798389952e-01  1.0776693478939481e+00  1.5270813615438490e+00  9.2807977880240622e-01  1.7408930493791563e-01  1.4138483559548769e+00  1.4358355500822859e+00  1.1050191189615535e+00  8.4972213675989006e-01  1.6298046858441535e+00  8.8044536721101685e-01  7.6734080574067132e-01  1.6680180766949440e+00  1.5145998392636184e+00  1.6738592120900639e+00  1.7712350250992428e+00  1.6892067191975741e+00  7.8466678624778063e-01  9.9184941888694844e-01  1.2866715409321425e+00  1.6799139857080354e+00  1.7678664010312075e+00  1.7694013907282216e+00  7.1367032123971563e-01  1.5503792706124944e+00  1.2625578591753861e+00  5.2433509577061133e-01  5.4864498785298799e-01  1.7982121742803228e+00  5.8218933023383068e-01  5.3402620996132000e-01  4.2662057904711881e-01  1.7046347946988916e-01  4.3530532991133791e-01  9.3300021030727920e-01  6.8363410279605119e-01  1.8011353968874638e-01  1.9953097532592265e-01  1.2899434021509932e+00  1.7270237236864383e-01  7.2496568194996469e-01  9.5418665599808816e-01  1.0840411266907768e+00  6.1399801691798594e-01  1.0611995770111162e+00  1.7799161197885396e-01  4.9480442849413292e-01  1.6575830196106942e-01  1.8294276949825188e+00  1.7821486791528187e+00  1.8418526508093055e-01  6.3641889190567247e-01  6.9012800641011951e-01  4.1061951628995114e-01  1.7570302080971584e-01  1.7378770879985070e-01  1.7206580162832291e-01  4.1759471311088175e-01  9.5949822263667983e-01  7.2444415024141884e-01  1.6431208008885401e-01  1.6915245824077571e-01  1.2564017705984256e+00  5.1255937898177628e-01  4.9419323853628722e-01  1.8059165942560511e+00  1.8265543624182892e+00  1.8468214185681626e+00  1.7272519626250087e+00  1.3748076112841079e+00  9.5891347877143518e-01  1.2659415394970752e+00  1.2017449468859469e+00  4.2186630216963672e-01  7.6452984376990352e-01  5.7206083467101176e-01  4.4927093450761196e-01  3.9949403368034342e-01  4.2620993689404130e-01  4.5642068167479460e-01  1.6753490312307634e-01  1.5167948529330069e+00  1.2269716030805371e+00  1.1290638118123038e+00  5.9712757400894323e-01  4.0188116154329984e-01  4.4106723861677555e-01  8.6760932743519670e-01  8.1328072901434123e-01  1.4996607728885807e+00  1.2695028639903230e+00  5.6417096837316905e-01  1.4714949700542466e+00  1.2008602338559888e+00  1.7676090156247337e-01  1.6401837231905387e+00  6.1465251729254156e-01  8.0270134133107529e-01  1.4562777301495411e+00  7.3212169697068052e-01  1.2227260109580704e+00  8.2254002191917475e-01  5.8352292271483430e-01  1.2535628467604456e+00  1.7502445655432803e+00  3.7329036653787601e-01  1.6456959866673204e-01  6.3407538102712080e-01  9.2575615655976395e-01  1.8387390290912797e+00  9.5758468796596130e-01  9.7310775408940497e-01  4.0968515587037180e-01  6.2826562863517532e-01  1.0469739598429662e+00  4.3265311806853340e-01  8.1800983869775956e-01  5.8483276913925064e-01  3.7269256099451259e-01  9.0438259252469122e-01  5.5042152710669079e-01  4.0220494652495542e-01  6.6456871052736233e-01  3.9413856887859727e-01  1.0227404219154392e+00  1.5506102998680113e-01  1.7306920199323791e-01  3.7087438903869047e-01  7.7916043567821136e-01  1.3679195786054597e+00  1.0679463903193223e+00  1.8299057159936682e+00  1.0228321755261580e+00  7.5365227696686521e-01  1.7562025562863852e+00  5.4631930348867275e-01  7.7853539860661625e-01  4.1673661304372372e-01  1.2690629166918035e+00  3.4703637420011302e-01  1.6911016859888026e-01  4.0718043890890115e-01  4.6110010937454293e-01  4.3321162425274773e-01  1.8053181236227298e+00  4.4494574662444092e-01  1.6208944264390451e-01  1.6480148824244514e-01  1.1258990096270400e+00  6.0287475952247616e-01  7.8727701951718221e-01  3.8236106818152099e-01  1.7270088037082183e+00  1.7583123733143968e+00  1.3676962049901240e+00  1.8225643936389200e+00  1.5180273433612734e-01  7.0114392910040158e-01  1.8134706929246622e+00  1.8500368060897900e+00  4.5434253719953699e-01  1.6864668143007597e+00  1.2442719203808534e+00  1.6020269674517715e+00  9.6343495023164349e-01  1.0698135029875375e+00  6.2106022725112930e-01  6.8367353520003671e-01  1.2594154729398421e+00  1.1951281778368135e+00  1.5847327989195565e+00  2.1203575887744044e-01  3.9397286526129727e-01  6.5554782912316056e-01  6.3967299738860695e-01  6.3452328913918765e-01  1.1375535339313496e+00  1.7584649577976610e+00  1.2604396007224969e+00  1.7770208427122940e+00  1.5041255487243661e+00  1.2875135111484823e+00  1.0136934636620809e+00  1.6376572629692265e+00  1.2534749803192260e+00  1.7809235999051760e+00  1.6891711408174919e+00  1.5780597098521385e+00  8.2259762259221447e-01  1.4866737169762108e+00  1.3474797824575435e+00  1.7182346193987210e+00  1.1821849179203106e+00  1.1637865611231109e+00  1.0356405115378760e+00  1.2242050308090431e+00  9.8839423698575979e-01  1.7167298949658589e+00  1.4702240440117170e-01  1.7818439139198067e-01  1.3855730147351857e+00  1.7834348479209656e+00  1.4845920706644560e+00  9.3541555897808371e-01  7.9343558430769423e-01  1.3156599444615729e+00  7.4328555517529693e-01  8.1404181130670017e-01  1.0386467062615883e+00  8.3702935914761523e-01  1.5395106364999095e-01  9.1967062613389516e-01  1.8347014521796645e+00  1.7003990569097058e+00  2.7131354916443085e-01  1.6874345254188558e-01  5.4911075867908277e-01  1.6952008915724462e-01  3.8806890853701509e-01  7.1488871926597608e-01  1.0733320442719612e+00  1.2180744319099899e+00  1.5899911795562229e+00  1.5107789296164140e-01  4.2406708047513786e-01  1.7295176077156463e-01  1.4702971996407194e-01  1.8243545906967964e+00  1.6374777403088178e-01  9.9662627569478879e-01  1.2306939685451741e+00  1.0918832600157486e+00  3.5831051440058492e-01  3.5644748918956121e-01  7.4284818390561347e-01  8.6056148720240400e-01  9.5239457711032249e-01  1.4026557178366583e+00  1.3495034479957646e+00  1.4640767490244460e+00  6.1209388794678743e-01  2.1141697676964649e-01  1.3172923994461023e+00  1.4965229777494542e+00  1.4551685437874957e+00  1.6405291551750367e+00  1.0220754348440990e+00  1.0816962470879039e+00  1.2526697968984590e+00  4.9301344882835135e-01  8.5560081666277921e-01  6.4176650867989127e-01  1.4346718562987180e+00  1.7981857636276732e-01  1.0435337230727477e+00  1.7835354344020786e+00  1.8285502213116760e+00  6.3492374362149828e-01  1.5729479638424471e+00  1.3578059701454315e-01  1.4644180344610331e+00  5.5926567507588232e-01  8.7772955365689720e-01  6.8448099611303803e-01  3.7983981968896158e-01  6.0766792153411