<?xml version="1.0"?>
<VTKFile type="UnstructuredGrid"  version="0.1"  >
<UnstructuredGrid>
<Piece  NumberOfPoints="18071" NumberOfCells="35544">
<Points>
<DataArray  type="Float64"  NumberOfComponents="3"  format="ascii">0.9486832980505138 0 0  0.9484724340806782 0.02000104469955538 0  0.9478399359086995 0.03999319812908447 0  0.9467860847054931 0.0599675729710886 0  0.9453113489503684 0.07991528981136745 0  0.9434163842227721 0.09982748108627622 0  0.9411020329108563 0.119695295024715 0  0.938369323837003 0.1395098995830973 0  0.9352194718004709 0.1592624863715497 0  0.931653877037369 0.1789442745695953 0  0.9276741245981944 0.1985465148295827 0  0.9232819836432135 0.2180604931661231 0  0.9184794066559997 0.2374775348298079 0  0.9132685285754754 0.2567890081634844 0  0.9076516658468453 0.2759863284393749 0  0.9016313153918442 0.2950609616753339 0  0.8952101534987531 0.3140044284285474 0  0.8883910346326832 0.3328083075649862 0  0.8811769901666499 0.3514642400029395 0  0.873571227034005 0.3699639324289635 0  0.8655771263028276 0.3882991609845931 0  0.8571982416729006 0.4064617749221782 0  0.8484382978959503 0.4244437002282196 0  0.8393011891198424 0.4422369432125932 0  0.829790977157478 0.459833594062067 0  0.8199118896811526 0.477225830356532 0  0.8096683183431869 0.4944059205463824 0  0.7990648168236594 0.5113662273895018 0  0.7881060988061126 0.5280992113463244 0  0.7767970358821309 0.5445974339314641 0  0.7651426553857218 0.5608535610204205 0  0.753148138158463 0.5768603661098937 0  0.7408188162464108 0.5926107335302548 0  0.7281601705297891 0.6080976616087488 0  0.7151778282865192 0.6233142657820195 0  0.7018775606906669 0.6382537816565753 0  0.6882652802469232 0.652909568015835 0  0.6743470381622587 0.6672751097724156 0  0.6601290216559174 0.6813440208643511 0  0.6456175512089487 0.6951100470939552 0  0.6308190777544996 0.7085670689080622 0  0.6157401798101144 0.7217091041184169 0  0.6003875605533189 0.734530310560997 0  0.584768044841788 0.7470249886930909 0  0.5688885761794213 0.7591875841269735 0  0.5527562136296766 0.7710126900990562 0  0.5363781286775311 0.7824950498734097 0  0.5197616020414676 0.7936295590785962 0  0.5029140204369025 0.8044112679767674 0  0.4858428732924924 0.8148353836640227 0  0.4685557494207815 0.8248972722010478 0  0.4510603336446699 0.8345924606730875 0  0.4333644033811983 0.8439166391783361 0  0.4154758251841748 0.8528656627438631 0  0.3974025512471733 0.8614355531682203 0  0.379152615868464 0.8696225007899122 0  0.3607341318794444 0.8774228661809444 0  0.342155287038158 0.8848331817646961 0  0.3234243403895067 0.8918501533573969 0  0.3045496185937731 0.898470661632525 0  0.2855395122250832 0.904691763507473 0  0.2664024720414594 0.9105106934518669 0  0.2471470052281184 0.915924864716955 0  0.2277816716156831 0.9209318704855235 0  0.2083150798749952 0.925529484941822 0  0.1887558836902123 0.9297156642610294 0  0.1691127779118977 0.9334885475178156 0  0.1493944946918097 0.9368464575135985 0  0.1296097996011066 0.9397879015221259 0  0.1097674877336993 0.9423115719530522 0  0.08987637979647611 0.9444163469332154 0  0.06994531818814397 0.9461012908053551 0  0.04998316306842656 0.9473656545440494 0  0.02999878841936526 0.9482088760886865 0  0.01000107810047723 0.9486305805933245 0  -0.01000107810047732 0.9486305805933245 0  -0.02999878841936514 0.9482088760886865 0  -0.04998316306842644 0.9473656545440494 0  -0.06994531818814406 0.9461012908053551 0  -0.08987637979647599 0.9444163469332155 0  -0.1097674877336992 0.9423115719530522 0  -0.1296097996011065 0.9397879015221259 0  -0.1493944946918096 0.9368464575135985 0  -0.1691127779118979 0.9334885475178156 0  -0.1887558836902122 0.9297156642610294 0  -0.2083150798749951 0.925529484941822 0  -0.227781671615683 0.9209318704855235 0  -0.247147005228118 0.9159248647169551 0  -0.2664024720414591 0.9105106934518669 0  -0.2855395122250831 0.904691763507473 0  -0.3045496185937729 0.8984706616325251 0  -0.3234243403895066 0.8918501533573969 0  -0.3421552870381577 0.8848331817646962 0  -0.3607341318794441 0.8774228661809446 0  -0.3791526158684641 0.8696225007899122 0  -0.3974025512471734 0.8614355531682203 0  -0.4154758251841746 0.8528656627438632 0  -0.4333644033811984 0.8439166391783361 0  -0.4510603336446696 0.8345924606730876 0  -0.4685557494207815 0.8248972722010479 0  -0.4858428732924923 0.8148353836640227 0  -0.5029140204369026 0.8044112679767673 0  -0.5197616020414676 0.7936295590785962 0  -0.536378128677531 0.7824950498734098 0  -0.5527562136296768 0.7710126900990562 0  -0.5688885761794211 0.7591875841269737 0  -0.5847680448417879 0.747024988693091 0  -0.6003875605533187 0.7345303105609973 0  -0.6157401798101142 0.721709104118417 0  -0.6308190777544995 0.7085670689080623 0  -0.6456175512089487 0.6951100470939551 0  -0.6601290216559171 0.6813440208643513 0  -0.6743470381622587 0.6672751097724156 0  -0.688265280246923 0.6529095680158352 0  -0.7018775606906668 0.6382537816565753 0  -0.7151778282865192 0.6233142657820195 0  -0.7281601705297891 0.6080976616087488 0  -0.7408188162464107 0.592610733530255 0  -0.753148138158463 0.5768603661098938 0  -0.7651426553857216 0.5608535610204208 0  -0.7767970358821308 0.5445974339314642 0  -0.7881060988061125 0.5280992113463245 0  -0.7990648168236594 0.5113662273895018 0  -0.8096683183431868 0.4944059205463825 0  -0.8199118896811526 0.477225830356532 0  -0.8297909771574777 0.4598335940620675 0  -0.8393011891198424 0.4422369432125932 0  -0.8484382978959502 0.4244437002282198 0  -0.8571982416729006 0.4064617749221782 0  -0.8655771263028273 0.3882991609845933 0  -0.873571227034005 0.3699639324289636 0  -0.8811769901666499 0.3514642400029395 0  -0.8883910346326833 0.332808307564986 0  -0.8952101534987531 0.3140044284285475 0  -0.9016313153918442 0.295060961675334 0  -0.9076516658468452 0.2759863284393752 0  -0.9132685285754755 0.2567890081634842 0  -0.9184794066559997 0.237477534829808 0  -0.9232819836432135 0.218060493166123 0  -0.9276741245981943 0.1985465148295829 0  -0.931653877037369 0.1789442745695954 0  -0.9352194718004709 0.15926248637155 0  -0.938369323837003 0.1395098995830971 0  -0.9411020329108563 0.1196952950247151 0  -0.9434163842227721 0.09982748108627618 0  -0.9453113489503684 0.07991528981136768 0  -0.9467860847054931 0.05996757297108869 0  -0.9478399359086995 0.03999319812908442 0  -0.9484724340806782 0.02000104469955522 0  -0.9486832980505138 1.161801964362116e-16 0  -0.9484724340806782 -0.02000104469955541 0  -0.9478399359086995 -0.0399931981290842 0  -0.9467860847054931 -0.05996757297108847 0  -0.9453113489503684 -0.07991528981136745 0  -0.9434163842227721 -0.09982748108627594 0  -0.9411020329108563 -0.1196952950247148 0  -0.938369323837003 -0.1395098995830973 0  -0.935219471800471 -0.1592624863715494 0  -0.9316538770373691 -0.1789442745695952 0  -0.9276741245981944 -0.1985465148295827 0  -0.9232819836432136 -0.2180604931661228 0  -0.9184794066559998 -0.2374775348298077 0  -0.9132685285754755 -0.256789008163484 0  -0.9076516658468454 -0.2759863284393745 0  -0.9016313153918442 -0.2950609616753337 0  -0.8952101534987533 -0.3140044284285469 0  -0.8883910346326832 -0.3328083075649862 0  -0.8811769901666497 -0.3514642400029397 0  -0.8735712270340051 -0.3699639324289634 0  -0.8655771263028275 -0.3882991609845931 0  -0.8571982416729007 -0.406461774922178 0  -0.8484382978959503 -0.4244437002282196 0  -0.8393011891198425 -0.4422369432125929 0  -0.8297909771574781 -0.4598335940620669 0  -0.8199118896811529 -0.4772258303565314 0  -0.8096683183431871 -0.494405920546382 0  -0.7990648168236597 -0.5113662273895012 0  -0.7881060988061124 -0.5280992113463246 0  -0.7767970358821309 -0.544597433931464 0  -0.7651426553857217 -0.5608535610204206 0  -0.7531481381584632 -0.5768603661098936 0  -0.7408188162464108 -0.5926107335302547 0  -0.7281601705297893 -0.6080976616087486 0  -0.7151778282865193 -0.6233142657820193 0  -0.7018775606906672 -0.638253781656575 0  -0.6882652802469235 -0.6529095680158347 0  -0.674347038162259 -0.6672751097724151 0  -0.660129021655917 -0.6813440208643514 0  -0.6456175512089486 -0.6951100470939552 0  -0.6308190777544994 -0.7085670689080624 0  -0.6157401798101141 -0.7217091041184172 0  -0.6003875605533191 -0.7345303105609969 0  -0.5847680448417881 -0.7470249886930909 0  -0.5688885761794213 -0.7591875841269736 0  -0.5527562136296765 -0.7710126900990563 0  -0.5363781286775317 -0.7824950498734093 0  -0.519761602041468 -0.7936295590785959 0  -0.5029140204369028 -0.8044112679767672 0  -0.4858428732924925 -0.8148353836640226 0  -0.4685557494207817 -0.8248972722010478 0  -0.4510603336446699 -0.8345924606730875 0  -0.4333644033811982 -0.8439166391783361 0  -0.4154758251841745 -0.8528656627438633 0  -0.3974025512471736 -0.8614355531682203 0  -0.3791526158684643 -0.8696225007899121 0  -0.3607341318794445 -0.8774228661809444 0  -0.342155287038158 -0.8848331817646962 0  -0.3234243403895075 -0.8918501533573966 0  -0.3045496185937727 -0.8984706616325251 0  -0.2855395122250827 -0.9046917635074732 0  -0.2664024720414597 -0.9105106934518667 0  -0.2471470052281185 -0.915924864716955 0  -0.2277816716156832 -0.9209318704855235 0  -0.2083150798749951 -0.925529484941822 0  -0.1887558836902128 -0.9297156642610293 0  -0.1691127779118983 -0.9334885475178155 0  -0.14939449469181 -0.9368464575135985 0  -0.1296097996011069 -0.9397879015221258 0  -0.1097674877336994 -0.942311571953052 0  -0.08987637979647602 -0.9444163469332154 0  -0.06994531818814387 -0.9461012908053551 0  -0.04998316306842625 -0.9473656545440494 0  -0.02999878841936558 -0.9482088760886865 0  -0.01000107810047755 -0.9486305805933245 0  0.0100010781004772 -0.9486305805933245 0  0.02999878841936524 -0.9482088760886865 0  0.04998316306842591 -0.9473656545440494 0  0.06994531818814352 -0.9461012908053552 0  0.08987637979647567 -0.9444163469332155 0  0.1097674877336991 -0.9423115719530522 0  0.1296097996011066 -0.9397879015221259 0  0.1493944946918097 -0.9368464575135985 0  0.1691127779118979 -0.9334885475178156 0  0.1887558836902125 -0.929715
[...]
<PointData  Scalars="f_29-2"> 
<DataArray  type="Float64"  Name="f_29-2"  format="ascii">0.0000000000000000e+00  0.0000000000000000e+00  0.0000000000000000e+00  0.0000000000000000e+00  0.0000000000000000e+00  0.0000000000000000e+00  0.0000000000000000e+00  0.0000000000000000e+00  0.0000000000000000e+00  0.0000000000000000e+00  0.0000000000000000e+00  0.0000000000000000e+00  0.0000000000000000e+00  0.0000000000000000e+00  0.0000000000000000e+00  0.0000000000000000e+00  0.0000000000000000e+00  0.0000000000000000e+00  0.0000000000000000e+00  0.0000000000000000e+00  0.0000000000000000e+00  0.0000000000000000e+00  0.0000000000000000e+00  0.0000000000000000e+00  0.0000000000000000e+00  0.0000000000000000e+00  0.0000000000000000e+00  0.0000000000000000e+00  0.0000000000000000e+00  0.0000000000000000e+00  0.0000000000000000e+00  0.0000000000000000e+00  0.0000000000000000e+00  0.0000000000000000e+00  0.0000000000000000e+00  0.0000000000000000e+00  0.0000000000000000e+00  0.0000000000000000e+00  0.0000000000000000e+00  0.0000000000000000e+00  0.0000000000000000e+00  0.0000000000000000e+00  0.0000000000000000e+00  0.0000000000000000e+00  0.0000000000000000e+00  0.0000000000000000e+00  0.0000000000000000e+00  0.0000000000000000e+00  0.0000000000000000e+00  0.0000000000000000e+00  0.0000000000000000e+00  0.0000000000000000e+00  0.0000000000000000e+00  0.0000000000000000e+00  0.0000000000000000e+00  0.0000000000000000e+00  0.0000000000000000e+00  0.0000000000000000e+00  0.0000000000000000e+00  0.0000000000000000e+00  0.0000000000000000e+00  0.0000000000000000e+00  0.0000000000000000e+00  0.0000000000000000e+00  0.0000000000000000e+00  0.0000000000000000e+00  0.0000000000000000e+00  0.0000000000000000e+00  0.0000000000000000e+00  0.0000000000000000e+00  0.0000000000000000e+00  0.0000000000000000e+00  0.0000000000000000e+00  0.0000000000000000e+00  0.0000000000000000e+00  0.0000000000000000e+00  0.0000000000000000e+00  0.0000000000000000e+00  0.0000000000000000e+00  0.0000000000000000e+00  0.0000000000000000e+00  0.0000000000000000e+00  0.0000000000000000e+00  0.0000000000000000e+00  0.0000000000000000e+00  0.0000000000000000e+00  0.0000000000000000e+00  0.0000000000000000e+00  0.0000000000000000e+00  0.0000000000000000e+00  0.0000000000000000e+00  0.0000000000000000e+00  0.0000000000000000e+00  0.0000000000000000e+00  0.0000000000000000e+00  0.0000000000000000e+00  0.0000000000000000e+00  0.0000000000000000e+00  0.0000000000000000e+00  0.0000000000000000e+00  0.0000000000000000e+00  0.0000000000000000e+00  0.0000000000000000e+00  0.0000000000000000e+00  0.0000000000000000e+00  0.0000000000000000e+00  0.0000000000000000e+00  0.0000000000000000e+00  0.0000000000000000e+00  0.0000000000000000e+00  0.0000000000000000e+00  0.0000000000000000e+00  0.0000000000000000e+00  0.0000000000000000e+00  0.0000000000000000e+00  0.0000000000000000e+00  0.0000000000000000e+00  0.0000000000000000e+00  0.0000000000000000e+00  0.0000000000000000e+00  0.0000000000000000e+00  0.0000000000000000e+00  0.0000000000000000e+00  0.0000000000000000e+00  0.0000000000000000e+00  0.0000000000000000e+00  0.0000000000000000e+00  0.0000000000000000e+00  0.0000000000000000e+00  0.0000000000000000e+00  0.0000000000000000e+00  0.0000000000000000e+00  0.0000000000000000e+00  0.0000000000000000e+00  0.0000000000000000e+00  0.0000000000000000e+00  0.0000000000000000e+00  0.0000000000000000e+00  0.0000000000000000e+00  0.0000000000000000e+00  0.0000000000000000e+00  0.0000000000000000e+00  0.0000000000000000e+00  0.0000000000000000e+00  0.0000000000000000e+00  0.0000000000000000e+00  0.0000000000000000e+00  0.0000000000000000e+00  0.0000000000000000e+00  0.0000000000000000e+00  0.0000000000000000e+00  0.0000000000000000e+00  0.0000000000000000e+00  0.0000000000000000e+00  0.0000000000000000e+00  0.0000000000000000e+00  0.0000000000000000e+00  0.0000000000000000e+00  0.0000000000000000e+00  0.0000000000000000e+00  0.0000000000000000e+00  0.0000000000000000e+00  0.0000000000000000e+00  0.0000000000000000e+00  0.0000000000000000e+00  0.0000000000000000e+00  0.0000000000000000e+00  0.0000000000000000e+00  0.0000000000000000e+00  0.0000000000000000e+00  0.0000000000000000e+00  0.0000000000000000e+00  0.0000000000000000e+00  0.0000000000000000e+00  0.0000000000000000e+00  0.0000000000000000e+00  0.0000000000000000e+00  0.0000000000000000e+00  0.0000000000000000e+00  0.0000000000000000e+00  0.0000000000000000e+00  0.0000000000000000e+00  0.0000000000000000e+00  0.0000000000000000e+00  0.0000000000000000e+00  0.0000000000000000e+00  0.0000000000000000e+00  0.0000000000000000e+00  0.0000000000000000e+00  0.0000000000000000e+00  0.0000000000000000e+00  0.0000000000000000e+00  0.0000000000000000e+00  0.0000000000000000e+00  0.0000000000000000e+00  0.0000000000000000e+00  0.0000000000000000e+00  0.0000000000000000e+00  0.0000000000000000e+00  0.0000000000000000e+00  0.0000000000000000e+00  0.0000000000000000e+00  0.0000000000000000e+00  0.0000000000000000e+00  0.0000000000000000e+00  0.0000000000000000e+00  0.0000000000000000e+00  0.0000000000000000e+00  0.0000000000000000e+00  0.0000000000000000e+00  0.0000000000000000e+00  0.0000000000000000e+00  0.0000000000000000e+00  0.0000000000000000e+00  0.0000000000000000e+00  0.0000000000000000e+00  0.0000000000000000e+00  0.0000000000000000e+00  0.0000000000000000e+00  0.0000000000000000e+00  0.0000000000000000e+00  0.0000000000000000e+00  0.0000000000000000e+00  0.0000000000000000e+00  0.0000000000000000e+00  0.0000000000000000e+00  0.0000000000000000e+00  0.0000000000000000e+00  0.0000000000000000e+00  0.0000000000000000e+00  0.0000000000000000e+00  0.0000000000000000e+00  0.0000000000000000e+00  0.0000000000000000e+00  0.0000000000000000e+00  0.0000000000000000e+00  0.0000000000000000e+00  0.0000000000000000e+00  0.0000000000000000e+00  0.0000000000000000e+00  0.0000000000000000e+00  0.0000000000000000e+00  0.0000000000000000e+00  0.0000000000000000e+00  0.0000000000000000e+00  0.0000000000000000e+00  0.0000000000000000e+00  0.0000000000000000e+00  0.0000000000000000e+00  0.0000000000000000e+00  0.0000000000000000e+00  0.0000000000000000e+00  0.0000000000000000e+00  0.0000000000000000e+00  0.0000000000000000e+00  0.0000000000000000e+00  0.0000000000000000e+00  0.0000000000000000e+00  0.0000000000000000e+00  0.0000000000000000e+00  0.0000000000000000e+00  0.0000000000000000e+00  0.0000000000000000e+00  0.0000000000000000e+00  0.0000000000000000e+00  0.0000000000000000e+00  0.0000000000000000e+00  0.0000000000000000e+00  0.0000000000000000e+00  0.0000000000000000e+00  0.0000000000000000e+00  0.0000000000000000e+00  0.0000000000000000e+00  0.0000000000000000e+00  0.0000000000000000e+00  0.0000000000000000e+00  0.0000000000000000e+00  0.0000000000000000e+00  0.0000000000000000e+00  0.0000000000000000e+00  0.0000000000000000e+00  0.0000000000000000e+00  0.0000000000000000e+00  0.0000000000000000e+00  0.0000000000000000e+00  0.0000000000000000e+00  0.0000000000000000e+00  0.0000000000000000e+00  0.0000000000000000e+00  0.0000000000000000e+00  0.0000000000000000e+00  0.0000000000000000e+00  0.0000000000000000e+00  0.0000000000000000e+00  0.0000000000000000e+00  0.0000000000000000e+00  0.0000000000000000e+00  0.0000000000000000e+00  1.2504122264383886e+00  9.3778329730370047e-01  9.3771276823125749e-01  9.3773207382815915e-01  9.3775962018173942e-01  9.1674296402424149e-01  8.8290865721086442e-01  7.5144572833909595e-01  7.5137286849031926e-01  6.8790689962319029e-01  6.8476842921815129e-01  6.6417963704743144e-01  6.5563601697558616e-01  1.1320768009602236e+00  1.1320704233217400e+00  1.1446965873025763e+00  5.8306300937932010e-01  5.8302463391918125e-01  5.8723001849901479e-01  5.8303689638136791e-01  1.1459966587612498e+00  1.1246959101298972e+00  5.5945355672645825e-01  5.6045864283500413e-01  1.0882156717575884e+00  5.4769435732424454e-01  5.3015488502329777e-01  5.7249281837387911e-01  5.8567230088666600e-01  5.2780536164525116e-01  9.4465970861412984e-01  6.6333415348555147e-01  4.4399599537568252e-01  4.4400068368127488e-01  4.4784437892870504e-01  4.4400491029016237e-01  9.5598271450689087e-01  8.6189530743273646e-01  8.6181161177922816e-01  9.6010286268234057e-01  8.6783870680463493e-01  1.2009430186319869e+00  1.2055949562947097e+00  9.3824756304562806e-01  4.1185060653058198e-01  4.0264904414436842e-01  4.1040220712415731e-01  4.0362076753466353e-01  6.7977918627364353e-01  4.0037424681798600e-01  4.0072172163602648e-01  3.8115541359826666e-01  3.8980871927466987e-01  8.8106958374420108e-01  8.0660173031919224e-01  9.1209904678678377e-01  3.7953272143897526e-01  3.7916581627419799e-01  1.1195582944301086e+00  9.7445028183321936e-01  1.2173730079291138e+00  1.2116646509736120e+00  1.1961173757242574e+00  7.7766221431635718e-01  1.0990983843767703e+00  3.8994383795025411e-01  1.0459062485239037e+00  1.0916236923343843e+00  3.7595158674543777e-01  3.5791145965528898e-01  7.5240797813971683e-01  8.4364596358978672e-01  3.5055203434261961e-01  1.0914936426210389e+00  1.2205768507091068e+00  1.0415273303440786e+00  1.0306437909993300e+00  1.0627925240410316e+00  1.0360562588123035e+00  7.8630872508743166e-01  3.3470763463784586e-01  3.3163920112842782e-01  3.3156694237927853e-01  6.9197381362179389e-01  3.3228897411584291e-01  3.5412787728664197e-01  8.1396856107124249e-01  7.1610863434734240e-01  3.2143150503695389e-01  1.0249784402879993e+00  7.7671728233661241e-01  8.1939013957386930e-01  6.7705692088533986e-01  3.1279686440978649e-01  9.6430772440099544e-01  6.7808450540309828e-01  6.7804609264712135e-01  3.1070767659551540e-01  1.0288315884508432e+00  3.1161703643959299e-01  7.3250098275961784e-01  3.1195454207824230e-01  6.4674344441325027e-01  7.8072154731279220e-01  7.5338360585337483e-01  1.1516853029874734e+00  1.0555195953918006e+00  1.0351872225075898e+00  2.9867766028690484e-01  6.1992163268317269e-01  2.8603635520709053e-01  1.0181554167376075e+00  7.2165831606365316e-01  8.0749155758011282e-01  3.1280495030299421e-01  6.2554121095403559e-01  1.2072787064189368e+00  8.1249237076399761e-01  5.4907016404887976e-01  6.3097285114872592e-01  3.2954364889097276e-01  3.0755322686843090e-01  5.4694845092505595e-01  9.0494881809078465e-01  1.1453075837966822e+00  7.4923974625952339e-01  5.9622125521339797e-01  1.1385195146798730e+00  2.8175699087966466e-01  5.9985229052404343e-01  3.7556644421151070e-01  2.9350682735441047e-01  5.6749483789853084e-01  9.1510812106985484e-01  2.8379828242177235e-01  2.8680519503899848e-01  2.7307048776306847e-01  2.7205574001089622e-01  7.0806924497875479e-01  1.2052313436874555e+00  4.5550603611335672e-01  9.9670424986332240e-01  5.8770868523707431e-01  1.1288536257191280e+00  4.9986037741017414e-01  1.2364400604793861e+00  5.5748373785486705e-01  1.0648765476353437e+00  2.4689143505726174e-01  3.7521046552453380e-01  2.7199706045105077e-01  8.9086227324634060e-01  8.1007710012419532e-01  1.0577460259163309e+00  8.2284157221334986e-01  2.4593803983245099e-01  2.4758475208662792e-01  2.4090840777655123e-01  2.4082142959914757e-01  5.0082277068370118e-01  7.7894862468737081e-01  1.1644277876756322e+00  5.1769399182026843e-01  4.8214119537550065e-01  6.8777994129510234e-01  8.2328812795671058e-01  5.7612068915879078e-01  8.6589595483131421e-01  9.8259750856343175e-01  1.2376735676591513e+00  1.1673717163240402e+00  5.2781295027688657e-01  8.1312140812006106e-01  2.5270563858848316e-01  1.1388675713461176e+00  1.0606180850839979e+00  9.4668288810134948e-01  5.2627359040850352e-01  1.0403012658669304e+00  5.5257131143098959e-01  8.6796677196203897e-01  9.5030868457603790e-01  5.1521607462965002e-01  8.3815530962858431e-01  4.8536974149409962e-01  5.5160941375389350e-01  1.1645323419746296e+00  1.2379245184875654e+00  1.1710620997076830e+00  2.2595300475831909e-01  2.3503537185500534e-01  9.1904897187732149e-01  2.2733247622293096e-01  2.4573831329508208e-01  9.0366450000157172e-01  8.1400359296069014e-01  7.3624661437217587e-01  8.1396496990488942e-01  7.2538127416359377e-01  9.4463860416095780e-01  7.3573509769711787e-01  5.6441825311758209e-01  2.2826136907333372e-01  2.1896226464383062e-01  2.1930446239964591e-01  4.9774564626544870e-01  8.4224802250469621e-01  4.9929191770129183e-01  4.8057464481849266e-01  2.2114837696988554e-01  2.1981371965076787e-01  9.7015405045836423e-01  1.0576639145889624e+00  2.1936985848713242e-01  1.0395083024176726e+00  1.0339610276097844e+00  1.1174799245973310e+00  2.1154284726514952e-01  9.3161764621474574e-01  2.1668142560194739e-01  1.2406156106600716e+00  6.6557572560250600e-01  2.3604678329189116e-01  2.2401835703939310e-01  2.1194065815326132e-01  1.0173514705409779e+00  2.0821151280214178e-01  2.7441628773754689e-01  4.2266849066980788e-01  2.3079127057275051e-01  2.0681078886956372e-01  5.5922196044652039e-01  4.5251727124501911e-01  4.6828618631402630e-01  4.4815921142805781e-01  2.1660125669988256e-01  6.0322133738615158e-01  2.2506006082023419e-01  4.1784889281295340e-01  2.0275766408876247e-01  1.1787840284057569e+00  1.1987360760752173e+00  4.6263596639474602e-01  4.8429614054417591e-01  7.9288934949784973e-01  1.1995175291402853e+00  5.7506562174421594e-01  9.8132752507140253e-01  9.3694085144338268e-01  1.1756993810373764e+00  5.1108078919025679e-01  7.5580718386476275e-01  6.9420303495930802e-01  5.2519955795744389e-01  2.0297788726982890e-01  2.1295175681285644e-01  2.0278898129009315e-01  2.5213842581144269e-01  9.4087998852783306e-01  9.4426195371406707e-01  7.2413084555002427e-01  2.0754892813171213e-01  7.1666126392414664e-01  1.0514868158499424e+00  2.0300278860793300e-01  8.2689709414918489e-01  1.0951635067809051e+00  1.0901704417026190e+00  1.2192960411041287e+00  1.1506337670799880e+00  7.1756436967174642e-01  1.2421736665802041e+00  2.0699233618706162e-01  1.1043783963076201e+00  8.7094729374677926e-01  9.5256972814733332e-01  7.9839254969335938e-01  7.5095465196942901e-01  7.6905792293118325e-01  2.0850053188628662e-01  1.1339263925510692e+00  5.3968119521089941e-01  9.6879368397107979e-01  6.6100256400537905e-01  8.2591485173652401e-01  1.0292376674351533e+00  1.0312891456400892e+00  1.1044807869288824e+00  2.4813432575418193e-01  1.0893108969882996e+00  6.0181632077494041e-01  1.1572626160506594e+00  7.1449763711449255e-01  6.5226095713008581e-01  1.2380381306168500e+00  1.0166215832434229e+00  4.8114089124668241e-01  6.9033388508865534e-01  5.4901360781669117e-01  1.1816533847637598e+00  4.2785767768495092e-01  8.8602353357115582e-01  5.8889296672563674e-01  1.8927150995315251e-01  1.8541548038585765e-01  1.2105875359138325e+00  6.5037068420574207e-01  1.9685290460554339e-01  4.3703747122212233e-01  4.7338411985378698e-01  1.9563439873832980e-01  4.3492929783206918e-01  1.8973351964676638e-01  1.9304588479081747e-01  1.0983900512915719e+00  1.8401501058935602e-01  6.4269749921526387e-01  7.0286448081849107e-01  7.1169887675535237e-01  5.3640193718011542e-01  1.8231375411012002e-01  1.0350649347659850e+00  1.0303313497385158e+00  1.1097046594735196e+00  9.3262505453070110e-01  3.9964916314019300e-01  9.5919072844862996e-01  7.6098355443090060e-01  8.5990685923923493e-01  1.2285479000242530e+00  1.7961739718879524e-01  1.8016281853924046e-01  4.5489623461266754e-01  1.0053641885887517e+00  1.0964509197114947e+00  6.8714568106385820e-01  1.0150186482194570e+00  9.9578180102154190e-01  6.0732406596622823e-01  8.4519911172110518e-01  9.6031540790311443e-01  7.1741774038078132e-01  8.2246065879589236e-01  6.9815485765696428e-01  8.6026319504784665e-01  3.8083802863140420e-01  4.6102794256101415e-01  9.0460404364159586e-01  6.6333949293329098e-01  1.1780838289921627e+00  1.8405873222761268e-01  8.7255280645421107e-01  8.7809814974648370e-01  4.9517453370858983e-01  4.2531567881471488e-01  3.9605487978212317e-01  3.8290262275562920e-01  1.1832357119245320e+00  3.7147901747165252e-01  8.5802292647712908e-01  9.9116478263559238e-01  5.9146327875081872e-01  6.3388971309522135e-01  1.1104837262343297e+00  3.8862903400518145e-01  3.8187600860005150e-01  6.6900275880312199e-01  6.4594040852588097e-01  8.9019426304781146e-01  3.8949637998251063e-01  1.2235041833631903e+00  7.6094254183603893e-01  1.0182032395107807e+00  1.1018764660044917e+00  1.6668945322917492e-01  3.8489712782988450e-01  8.4532203964816022e-01  1.6962397337988078e-01  8.3131371299908341e-01  2.6208160974938693e-01  1.7008854683343744e-01  1.6544193385441586e-01  1.6965411023720248e-01  7.6790216502936892e-01  1.2444027276205221e+00  8.4138242548107400e-01  1.7049018197519922e-01  1.6291308421183859e-01  9.6035696984641605e-01  6.1180849821844407e-01  1.1713308902962329e+00  6.8107120069256555e-01  6.3458675159922806e-01  1.6663458234770956e-01  6.8202733696412909e-01  9.4612369093383586e-01  1.0917849018552510e+00  1.6644265815583292e-01  4.0842444970015135e-01  6.3211725293670140e-01  5.6418488843648007e-01  4.3778784036469853e-01  3.6099672652862519e-01  1.7344684899823273e-01  3.7519733403132893e-01  4.1945675495015511e-01  4.4206298747565448e-01  3.6841958612846792e-01  9.8748491705717911e-01  3.6955463229950886e-01  1.1421504245450984e+00  7.1751150300842170e-01  7.6741067455435308e-01  5.6183378370521320e-01  5.2047080128068146e-01  2.1477220875166120e-01  9.9696588125076502e-01  6.9656214961092633e-01  4.3005845520855529e-01  3.9875370577827929e-01  6.0167838017459208e-01  1.2270850728840046e+00  7.0989147372615458e-01  4.3726326210124095e-01  5.9451794353700227e-01  1.0535773658853653e+00  1.6572004800303322e-01  1.5787944840487558e-01  7.7646934440277215e-01  8.4859623781552596e-01  7.9399163157986830e-01  1.6164674421947539e-01  1.0812213417748839e+00  1.1868923146609749e+00  7.8171100011042893e-01  5.5800875833004182e-01  3.7837851459707444e-01  1.1344299013198873e+00  1.1926122265363757e+00  5.3680007362999249e-01  9.2452853351642783e-01  3.3595042735575148e-01  1.6052902283573531e-01  8.2735391994707985e-01  1.5282158158088713e-01  1.1046136519149201e+00  6.7892854237654710e-01  9.8282815365038068e-01  1.0530012905372872e+00  9.7371462753902738e-01  1.0892940652684060e+00  7.8276178401185414e-01  1.5530218331963874e-01  1.5723092317507073e-01  1.6019820534023291e-01  4.5567796015797346e-01  3.8414961670826220e-01  7.2401822756158152e-01  5.0494342872228548e-01  3.5525951354726476e-01  1.5714114976924767e-01  1.2003096459306799e+00  5.0907414906327086e-01  5.6852548523385094e-01  1.1645998579282442e+00  4.5984020748485432e-01  9.1483707965565420e-01  1.0822067833449449e+00  1.4898335136955765e-01  1.0000378426547143e+00  4.6314917055870342e-01  1.1729093173858138e+00  1.2200501905920706e+00  3.3691850180557387e-01  3.5712141199437930e-01  1.6294800056850936e-01  9.5926848408991972e-01  1.4555536942348654e-01  8.2568557344436988e-01  1.0727860833862684e+00  9.8310534768356306e-01  8.9030133884777873e-01  6.3843277681490407e-01  3.2935291628310720e-01  5.8698419276528258e-01  1.5230613702704116e-01  6.3419718305840389e-01  7.4221246561645615e-01  8.6396817786419000e-01  8.8128338703733622e-01  7.8909863144048953e-01  5.1573755762551254e-01  5.9348452555153042e-01  6.5484840149774537e-01  3.2708160963058908e-01  1.1047742874917603e+00  1.4367999226838413e-01  1.1496464169335061e+00  8.9024367188360554e-01  7.3072513430091224e-01  7.7288012577742415e-01  8.2414802097252404e-01  8.8264632941267063e-01  6.4811218045168473e-01  1.0889333763281723e+00  1.1709007318988616e+00  5.3667231096282264e-01  1.4711062501625355e-01  9.8007789143660506e-01  3.3847947794704464e-01  8.9543415669736748e-01  1.1046700323191199e+00  5.4003153600520981e-01  1.1413789834303241e+00  1.2008405008599259e+00  6.5968678639764244e-01  1.0396122036550184e+00  6.1178435602988424e-01  6.5445749432911260e-01  5.2215154392283580e-01  7.2350393643022970e-01  6.4434007409635230e-01  9.4128701141736137e-01  1.4976964372807139e-01  9.9813876753480157e-01  3.6730778014194410e-01  6.0875653526728479e-01  8.5415210629400862e-01  1.4973104985494309e-01  3.4700509079103681e-01  1.1977962684324772e+00  4.3352777677170