<?xml version="1.0"?>
<VTKFile type="UnstructuredGrid"  version="0.1"  >
<UnstructuredGrid>
<Piece  NumberOfPoints="3243" NumberOfCells="6301">
<Points>
<DataArray  type="Float64"  NumberOfComponents="3"  format="ascii">1 0 0  0.9987569212189223 0.04984588566069716 0  0.9950307753654014 0.09956784659581666 0  0.9888308262251285 0.1490422661761744 0  0.9801724878485438 0.1981461431993976 0  0.969077286229078 0.2467573976902936 0  0.9555728057861407 0.2947551744109042 0  0.9396926207859084 0.3420201433256687 0  0.9214762118704076 0.3884347962746947 0  0.9009688679024191 0.4338837391175581 0  0.8782215733702285 0.4782539786213182 0  0.8532908816321557 0.521435203379498 0  0.8262387743159949 0.5633200580636221 0  0.7971325072229225 0.6038044103254774 0  0.766044443118978 0.6427876096865393 0  0.7330518718298263 0.6801727377709194 0  0.6982368180860729 0.7158668492597184 0  0.6616858375968594 0.7497812029677342 0  0.6234898018587336 0.7818314824680298 0  0.58374367223479 0.8119380057158565 0  0.5425462638657594 0.8400259231507714 0  0.4999999999999999 0.8660254037844387 0  0.4562106573531631 0.8898718088114685 0  0.4112871031306117 0.9115058523116731 0  0.365341024366395 0.9308737486442042 0  0.3184866502516844 0.9479273461671317 0  0.2708404681430052 0.962624246950012 0  0.2225209339563144 0.9749279121818236 0  0.1736481776669304 0.984807753012208 0  0.1243437046474853 0.9922392066001721 0  0.07473009358642439 0.9972037971811801 0  0.02493069173807303 0.9996891820008162 0  -0.02493069173807291 0.9996891820008162 0  -0.07473009358642427 0.9972037971811801 0  -0.1243437046474852 0.9922392066001721 0  -0.1736481776669303 0.984807753012208 0  -0.2225209339563143 0.9749279121818236 0  -0.270840468143005 0.9626242469500121 0  -0.3184866502516843 0.9479273461671318 0  -0.3653410243663949 0.9308737486442044 0  -0.4112871031306114 0.9115058523116732 0  -0.4562106573531626 0.8898718088114688 0  -0.5000000000000002 0.8660254037844385 0  -0.5425462638657593 0.8400259231507715 0  -0.5837436722347896 0.8119380057158566 0  -0.6234898018587335 0.7818314824680299 0  -0.6616858375968592 0.7497812029677344 0  -0.6982368180860727 0.7158668492597186 0  -0.7330518718298263 0.6801727377709194 0  -0.7660444431189779 0.6427876096865395 0  -0.7971325072229225 0.6038044103254774 0  -0.8262387743159947 0.5633200580636223 0  -0.8532908816321556 0.5214352033794981 0  -0.8782215733702287 0.4782539786213181 0  -0.900968867902419 0.4338837391175582 0  -0.9214762118704077 0.3884347962746946 0  -0.9396926207859083 0.3420201433256689 0  -0.9555728057861406 0.2947551744109046 0  -0.9690772862290778 0.2467573976902938 0  -0.9801724878485438 0.1981461431993976 0  -0.9888308262251285 0.1490422661761747 0  -0.9950307753654014 0.09956784659581673 0  -0.9987569212189223 0.04984588566069748 0  -1 1.224646799147353e-16 0  -0.9987569212189223 -0.04984588566069723 0  -0.9950307753654014 -0.09956784659581648 0  -0.9888308262251285 -0.1490422661761745 0  -0.9801724878485439 -0.1981461431993974 0  -0.969077286229078 -0.2467573976902936 0  -0.9555728057861408 -0.2947551744109039 0  -0.9396926207859084 -0.3420201433256687 0  -0.9214762118704076 -0.3884347962746948 0  -0.9009688679024191 -0.433883739117558 0  -0.8782215733702288 -0.4782539786213179 0  -0.8532908816321557 -0.5214352033794979 0  -0.8262387743159949 -0.5633200580636221 0  -0.7971325072229226 -0.6038044103254772 0  -0.766044443118978 -0.6427876096865393 0  -0.7330518718298266 -0.6801727377709191 0  -0.6982368180860729 -0.7158668492597183 0  -0.6616858375968597 -0.749781202967734 0  -0.6234898018587337 -0.7818314824680297 0  -0.5837436722347905 -0.8119380057158559 0  -0.5425462638657592 -0.8400259231507715 0  -0.4999999999999996 -0.8660254037844388 0  -0.4562106573531632 -0.8898718088114684 0  -0.4112871031306116 -0.9115058523116731 0  -0.3653410243663957 -0.930873748644204 0  -0.318486650251685 -0.9479273461671316 0  -0.2708404681430046 -0.9626242469500123 0  -0.2225209339563146 -0.9749279121818236 0  -0.1736481776669303 -0.984807753012208 0  -0.1243437046474858 -0.992239206600172 0  -0.07473009358642473 -0.9972037971811801 0  -0.02493069173807316 -0.9996891820008162 0  0.02493069173807279 -0.9996891820008162 0  0.07473009358642436 -0.9972037971811801 0  0.1243437046474846 -0.9922392066001722 0  0.17364817766693 -0.9848077530122081 0  0.2225209339563142 -0.9749279121818236 0  0.2708404681430051 -0.962624246950012 0  0.3184866502516846 -0.9479273461671317 0  0.3653410243663945 -0.9308737486442045 0  0.4112871031306113 -0.9115058523116732 0  0.4562106573531629 -0.8898718088114687 0  0.5000000000000001 -0.8660254037844386 0  0.5425462638657597 -0.8400259231507713 0  0.5837436722347895 -0.8119380057158567 0  0.6234898018587334 -0.7818314824680299 0  0.6616858375968587 -0.7497812029677348 0  0.698236818086073 -0.7158668492597183 0  0.7330518718298266 -0.6801727377709191 0  0.7660444431189778 -0.6427876096865396 0  0.7971325072229224 -0.6038044103254775 0  0.8262387743159945 -0.5633200580636227 0  0.8532908816321558 -0.5214352033794979 0  0.8782215733702283 -0.4782539786213186 0  0.900968867902419 -0.4338837391175583 0  0.9214762118704076 -0.3884347962746947 0  0.9396926207859081 -0.3420201433256694 0  0.9555728057861406 -0.2947551744109047 0  0.9690772862290778 -0.246757397690294 0  0.9801724878485438 -0.1981461431993977 0  0.9888308262251285 -0.1490422661761744 0  0.9950307753654013 -0.09956784659581729 0  0.9987569212189223 -0.0498458856606976 0  0 -1.110223024625157e-16 0  -0.4060952245631048 0.2919625833433866 0  0.07454430279913359 0.4945691341012836 0  -0.3214937308814528 -0.3831413087744865 0  0.4060952245631052 -0.2919625833433861 0  0.4673719130775488 0.1970137823441975 0  0.07065575168974669 -0.5638195129952732 0  -0.5876518183134565 -0.07364232701738999 0  -0.2541979963622033 0.6030288969972762 0  0.4076207702370422 0.5262112245891383 0  0.6613130009878312 -0.07561785461588438 0  -0.2877924882763663 -0.08496671912316978 0  0.1122523041955583 -0.2722698749696852 0  -0.2136446684141768 -0.6649681138278456 0  0.3711239967993034 -0.5916870927688695 0  -0.6811618247539664 0.2288582017624023 0  -0.6036259983084502 -0.3898630043774365 0  -0.1519565356019055 0.3604834946258824 0  0.2223728889826192 0.7073349201016491 0  -0.5313477807263849 0.5182619981567066 0  0.6605018953341746 -0.3386195639300833 0  0.2873299503248539 -0.02875169806262802 0  0.1874625299482133 0.2355619893962034 0  0.7230148253408941 0.1735722145348512 0  -0.4549609197086589 -0.5957654959402137 0  -0.03463157487303079 0.7407085179683447 0  0.6291441987588993 0.406976916748466 0  -0.2289589159049669 0.1405285933300958 0  -0.08807616397075169 -0.392430403720013 0  0.205296612242771 -0.7458798537797463 0  -0.7547001834030465 -0.2123397074488059 0  -0.7837591992851975 0.01954573416024249 0  -0.01646532341657923 -0.7690653170628658 0  -0.4352401762958623 0.07855348178493107 0  0.2338185418859718 -0.4383564083763345 0  -0.4660907991281192 -0.2382969082541435 0  -0.07353959542582791 -0.189593951033018 0  -0.01634378184019994 0.2053797911459911 0  0.5767924862461576 -0.5348822709432305 0  0.4676013569319232 -0.1058100506567658 0  -0.4227737526629002 0.6918385751529503 0  0.3451218286438238 0.3448460222806342 0  -0.2417662837479932 0.783787041456639 0  0.7894336726564478 -0.2075150882455891 0  0.429437930868693 0.7027440193188219 0  0.5795530210908955 0.5802417886451888 0  0.818250434369694 0.01775696154863614 0  -0.09722442279153222 0.5263769109750763 0  -0.3089301091725765 0.4371354806480824 0  -0.7090524339547675 0.409371613613344 0  0.2438561876582929 0.4811936910778122 0  0.5432018434834983 0.04565923381603147 0  -0.3666591398357442 -0.7431965258712754 0  -0.5618207183878967 0.3397086085210991 0  -0.6185121444690291 -0.5572316488307958 0  -0.5977938369819751 0.08892586939414393 0  -0.2319369917805521 -0.2422716374480734 0  -0.2088517301748016 -0.8202123616008853 0  0.3674245052370875 -0.7539747860075445 0  0.5048967506413504 -0.6753011662259081 0  0.06820072641026245 0.3376857440261995 0  0.5825625451404475 -0.2068770910951368 0  -0.2093208387955752 -0.5017643152297908 0  0.4421364691493548 -0.4480702397503655 0  -0.06721994241050155 -0.6264082819342098 0  0.2198456810463068 -0.5890117939449101 0  0.1072482179998102 0.8270400658162729 0  0.101706945347264 0.1114338704246025 0  -0.826215081689274 0.1701570551503884 0  -0.7559016678791552 -0.3875281735895096 0  -0.1403081793782837 -0.05463656608767534 0  -0.4381435912761569 -0.0904638073416138 0  0.2648585596196462 -0.1972910845697012 0  0.1356675309518404 -0.09429826762197367 0  0.08800287638571841 -0.4175523043917539 0  0.772184265774069 0.3484228092971817 0  0.4820585818083429 0.3991084987153591 0  -0.6096551968804708 -0.2170872236035365 0  0.3980609174667186 0.06761537960865138 0  0.2429849976623634 0.1055167835565284 0  -0.4627258547488082 -0.3795349891758816 0  -0.5092671392521492 0.1973579212248526 0  0.7098874552164247 -0.4756664543534329 0  -0.3872144293666887 0.5549387157286028 0  0.007479912798405555 0.612104857903693 0  -0.1106088318060157 0.07657058882501411 0  -0.08645511997809778 0.8639888077054165 0  0.8546013271693483 0.1469869706377941 0  -0.7957961633846122 0.3035577340122536 0  -0.6516041046685823 0.5750440342764058 0  0.7950924905082843 -0.342029907248517 0  -0.8517730591837042 -0.1067410126442437 0  0.3279509223104274 0.7972989472436024 0  0.5615550327388615 0.2917503018191212 0  0.1039924397968217 -0.8490717333777242 0  -0.274352362125688 0.3088893272147279 0  -0.3199998995660726 -0.5804912223174621 0  0.3315659806484027 0.2091724322371269 0  -0.1325896474512148 0.6530104098458814 0  0.1376376998738423 0.6084703306290548 0  0.3241561268038429 0.6261409266958099 0  0.6961548279354922 0.5198857607104763 0  0.5313120496018447 -0.3261229251073059 0  -0.4541049825189052 0.4132022653064708 0  -0.544101644468135 0.646985081491446 0  0.5933756450024116 0.1654697377387106 0  0.6936465783424133 0.04861005800032081 0  0.1936093818855595 0.3634402114305412 0  -0.4937059030800814 
[...]
<PointData  Scalars="velocity-2"> 
<DataArray  type="Float64"  Name="velocity-2"  format="ascii">0.0000000000000000e+00  0.0000000000000000e+00  0.0000000000000000e+00  0.0000000000000000e+00  0.0000000000000000e+00  0.0000000000000000e+00  0.0000000000000000e+00  0.0000000000000000e+00  0.0000000000000000e+00  0.0000000000000000e+00  0.0000000000000000e+00  0.0000000000000000e+00  0.0000000000000000e+00  0.0000000000000000e+00  0.0000000000000000e+00  0.0000000000000000e+00  0.0000000000000000e+00  0.0000000000000000e+00  0.0000000000000000e+00  0.0000000000000000e+00  0.0000000000000000e+00  0.0000000000000000e+00  0.0000000000000000e+00  0.0000000000000000e+00  0.0000000000000000e+00  0.0000000000000000e+00  0.0000000000000000e+00  0.0000000000000000e+00  0.0000000000000000e+00  0.0000000000000000e+00  0.0000000000000000e+00  0.0000000000000000e+00  0.0000000000000000e+00  0.0000000000000000e+00  0.0000000000000000e+00  0.0000000000000000e+00  0.0000000000000000e+00  0.0000000000000000e+00  0.0000000000000000e+00  0.0000000000000000e+00  0.0000000000000000e+00  0.0000000000000000e+00  0.0000000000000000e+00  0.0000000000000000e+00  0.0000000000000000e+00  0.0000000000000000e+00  0.0000000000000000e+00  0.0000000000000000e+00  0.0000000000000000e+00  0.0000000000000000e+00  0.0000000000000000e+00  0.0000000000000000e+00  0.0000000000000000e+00  0.0000000000000000e+00  0.0000000000000000e+00  0.0000000000000000e+00  0.0000000000000000e+00  0.0000000000000000e+00  0.0000000000000000e+00  0.0000000000000000e+00  0.0000000000000000e+00  0.0000000000000000e+00  0.0000000000000000e+00  0.0000000000000000e+00  0.0000000000000000e+00  0.0000000000000000e+00  0.0000000000000000e+00  0.0000000000000000e+00  0.0000000000000000e+00  0.0000000000000000e+00  0.0000000000000000e+00  0.0000000000000000e+00  0.0000000000000000e+00  0.0000000000000000e+00  0.0000000000000000e+00  0.0000000000000000e+00  0.0000000000000000e+00  0.0000000000000000e+00  0.0000000000000000e+00  0.0000000000000000e+00  0.0000000000000000e+00  0.0000000000000000e+00  0.0000000000000000e+00  0.0000000000000000e+00  0.0000000000000000e+00  0.0000000000000000e+00  0.0000000000000000e+00  0.0000000000000000e+00  0.0000000000000000e+00  0.0000000000000000e+00  0.0000000000000000e+00  0.0000000000000000e+00  0.0000000000000000e+00  0.0000000000000000e+00  0.0000000000000000e+00  0.0000000000000000e+00  0.0000000000000000e+00  0.0000000000000000e+00  0.0000000000000000e+00  0.0000000000000000e+00  0.0000000000000000e+00  0.0000000000000000e+00  0.0000000000000000e+00  0.0000000000000000e+00  0.0000000000000000e+00  0.0000000000000000e+00  0.0000000000000000e+00  0.0000000000000000e+00  0.0000000000000000e+00  0.0000000000000000e+00  0.0000000000000000e+00  0.0000000000000000e+00  0.0000000000000000e+00  0.0000000000000000e+00  0.0000000000000000e+00  0.0000000000000000e+00  0.0000000000000000e+00  0.0000000000000000e+00  0.0000000000000000e+00  0.0000000000000000e+00  0.0000000000000000e+00  0.0000000000000000e+00  0.0000000000000000e+00  0.0000000000000000e+00  0.0000000000000000e+00  0.0000000000000000e+00  1.2036338176853338e+00  8.4365900421686546e-01  8.4522721131442569e-01  8.4532832142789682e-01  8.4528989513084285e-01  8.3757129804043884e-01  7.6429792122293838e-01  7.3222985241885685e-01  6.4866826812658751e-01  6.3166143171871958e-01  6.3203588051921678e-01  1.0539057567341630e+00  1.0594321499095232e+00  5.8253242453436349e-01  5.8301963301776016e-01  5.5021283288357425e-01  5.5038869803790846e-01  9.6057952953346182e-01  5.1447615068004293e-01  5.1324963599397566e-01  5.1334102997162678e-01  1.0640471121938038e+00  1.0528569696071302e+00  5.0983901862104308e-01  4.9964027596211985e-01  5.1474606794254396e-01  5.0104537922474113e-01  1.0842137599276589e+00  9.4982110289224719e-01  4.5871603043800357e-01  4.4145806010441802e-01  4.3950873093564846e-01  4.6603285897201802e-01  9.0816072865002917e-01  8.4917438140330626e-01  8.1814977750087348e-01  1.1379571014521548e+00  1.1350911375284418e+00  4.3660177860998933e-01  8.6832599233649133e-01  3.9432170966451541e-01  8.5901338623824008e-01  3.7572290947695502e-01  3.8285246305825782e-01  3.6935316980990884e-01  3.7568371229520503e-01  3.7879979279839415e-01  8.0497810976327189e-01  8.0391659366923229e-01  3.7781779165177226e-01  7.9984102668554180e-01  7.9253869516218389e-01  3.5978889280736814e-01  6.4512157551606364e-01  3.5226288749001611e-01  7.1824320528467089e-01  1.0195667591938484e+00  3.2586208171148040e-01  3.4095102666747840e-01  3.3224338348909227e-01  1.0086539720925631e+00  6.9896431485396726e-01  7.9445899704759526e-01  6.8424452336205366e-01  6.8288621079630774e-01  6.8534107329796190e-01  3.4931667472321931e-01  1.1671467139085281e+00  3.3254168732524458e-01  3.2048967742364853e-01  1.1694112794917366e+00  9.0230192947562105e-01  1.0241087947631098e+00  1.1610566784359253e+00  9.2447905418327225e-01  3.2478775279645000e-01  6.8894061992566746e-01  6.5893816743972367e-01  9.4850472741695058e-01  1.0873935300163799e+00  7.2598227963082906e-01  7.9139427150845654e-01  3.1097523162355500e-01  6.1491399499220967e-01  7.0796389551688010e-01  1.1750997674484442e+00  2.8389994457606771e-01  2.8534063663025383e-01  3.1537213341035286e-01  2.8186440443299576e-01  2.8962814438173240e-01  3.0375159186538347e-01  2.9567997472852747e-01  6.7921179699514977e-01  3.0918784072222721e-01  9.3846664503993238e-01  6.3545089488109707e-01  9.5923392487797376e-01  6.3157382863282363e-01  6.9103203885450748e-01  5.7287994831592048e-01  2.8227463879126430e-01  6.9236796718207483e-01  7.0504790979937149e-01  3.2716828727964137e-01  7.0296741734188428e-01  5.8688692124173270e-01  9.4081830640824760e-01  2.7515587154103333e-01  9.3017256043746444e-01  2.6632481328456864e-01  6.9244514701476112e-01  9.6396186096030201e-01  5.6052985235839958e-01  9.5320258318412487e-01  8.3658185471813407e-01  5.4681024815315715e-01  1.0245852655893934e+00  9.3975897359106997e-01  5.4454879960416336e-01  1.1133781220532073e+00  1.0806653476420705e+00  9.5839605325382371e-01  2.7719942624551253e-01  2.5632144010848074e-01  1.1524750641071615e+00  8.0086183175694392e-01  1.1516779805799651e+00  6.2131185852736615e-01  8.2692112280534080e-01  2.5234550935703959e-01  2.4498809759357465e-01  5.0915450567655507e-01  4.9781605078126701e-01  3.2408273832932882e-01  9.3221873450394444e-01  5.2561453946730730e-01  5.4022557387007497e-01  9.8714767414792026e-01  2.6400016811458699e-01  3.6513276869772915e-01  5.2650537557411270e-01  2.4480357470295236e-01  2.4889159532552033e-01  8.3958129086272293e-01  1.0387960754932739e+00  6.3543827145934673e-01  1.0413354040024629e+00  5.4362972741014259e-01  5.4058516006957968e-01  4.4341939192544849e-01  2.5478363833443257e-01  1.1160790830825338e+00  5.0387232286312056e-01  5.6532512535377855e-01  4.6767310631395498e-01  1.1862940327047156e+00  1.1148732372587840e+00  7.2558760586346605e-01  8.2100956731065966e-01  5.3250159805713548e-01  8.1861295069280893e-01  8.4897376067086372e-01  6.9538798601725382e-01  7.8730500931506053e-01  2.4138963369436359e-01  1.1880428674292267e+00  4.7614999506250405e-01  8.0519814972674586e-01  6.4420430911601245e-01  2.1782578601643923e-01  2.3778498506056828e-01  7.5305699846714458e-01  9.6027304747761577e-01  1.0291976052885765e+00  4.6188549642900500e-01  2.6776378301875814e-01  2.0731297252055697e-01  2.1552321464469443e-01  2.9557617453717000e-01  2.2290033461647252e-01  2.2803166246965739e-01  7.7082438851430846e-01  9.5682884123088285e-01  2.1817506849079771e-01  4.9227117139862792e-01  2.1766180193507523e-01  2.0462562004599258e-01  2.1794357468627118e-01  2.0265504842162724e-01  7.1681511058251235e-01  6.4692995741771275e-01  7.7170172039573237e-01  5.4311671458042132e-01  1.9970159823082978e-01  4.7272073355417848e-01  1.9700890097472748e-01  2.0688563172441460e-01  5.2556460350045453e-01  4.5267403602613310e-01  2.0908873586615487e-01  4.7832013420600927e-01  1.9881317580815147e-01  2.0257375688399312e-01  1.1912655839431885e+00  1.9285103301817946e-01  2.0150312453621633e-01  9.1212685221454726e-01  1.1183997722546042e+00  6.9380867775893817e-01  2.1332646296931074e-01  9.2903175594830933e-01  8.7239592288401313e-01  1.0215537141216611e+00  1.1053274569041114e+00  4.2718058092184147e-01  6.8762333921398222e-01  8.8197977036596187e-01  8.3849617211566663e-01  8.9608403140138959e-01  8.1241139793199191e-01  7.2318470378417710e-01  7.2448458762089696e-01  1.0279594663045963e+00  9.3704695028116014e-01  8.6879528563003172e-01  1.8581531004740984e-01  4.2205033490701527e-01  5.3558750590026094e-01  4.5490920928059231e-01  9.2775882158393530e-01  8.5509359657651263e-01  8.6779917306094390e-01  4.1136433972520831e-01  8.0840053413152690e-01  6.9839172277434747e-01  1.9261416942839826e-01  2.0687917201099987e-01  1.9021827903271427e-01  4.5190882935869708e-01  1.8784412825046543e-01  1.0377149456613903e+00  4.6537817128029052e-01  6.9241816599073325e-01  7.7475031124286187e-01  3.6955169213790351e-01  6.4185537051168162e-01  1.1912572094088578e+00  3.5077023563516158e-01  1.7401878538983137e-01  1.1054362378584763e+00  6.7840517425289693e-01  1.8658889208264587e-01  1.8603802043920309e-01  8.2099242984619059e-01  7.4611970152774587e-01  6.9392330282471237e-01  1.8175591851305337e-01  4.6829693032272524e-01  6.7764660351349160e-01  5.7484725378937129e-01  5.9476778314779122e-01  3.9974610106002306e-01  1.0450447082926932e+00  7.7546030527449084e-01  5.7390268856112037e-01  1.0025949907177589e+00  1.1497829808246063e+00  3.7711446505871493e-01  1.8079304475558600e-01  8.5451424479987381e-01  8.8489377211647546e-01  7.4569999391587316e-01  4.7114707082553581e-01  4.0716638078665396e-01  2.4984104228287612e-01  5.8058631510431291e-01  9.1989127095188894e-01  9.3175820942680121e-01  1.0823177960313963e+00  1.0205466297382952e+00  3.6046069093837507e-01  6.2552178524369495e-01  3.8544276502258351e-01  4.6361554522916043e-01  1.0519194411173010e+00  4.7762120295299731e-01  1.7837595910568765e-01  4.4741954332103395e-01  1.7137910532275072e-01  9.3062405769182444e-01  5.4319041698569459e-01  2.3060563933572284e-01  3.8250235341083283e-01  6.3336917223195155e-01  6.2277087068973469e-01  7.3096731044517627e-01  1.7687498803937923e-01  4.4106143863770481e-01  1.0057122543685630e+00  3.6665502535033195e-01  1.6507467792204839e-01  1.6094657432345855e-01  5.5094252172170710e-01  7.4045634783594594e-01  6.2046783507063374e-01  5.8516475106052801e-01  7.3359473621501725e-01  6.3292252484387446e-01  8.5598548965891663e-01  6.8616271958178088e-01  1.7617438416929201e-01  1.1200641921472385e+00  1.1941540107541933e+00  1.1667253349000113e+00  1.1230948076111078e+00  9.8030387815638675e-01  8.9122367102670830e-01  8.2256873454595880e-01  4.0298914268676395e-01  7.6588789464766505e-01  1.5844751108921648e-01  1.7255249242966750e-01  4.3019310094795421e-01  2.4357444056224414e-01  1.1630552733274218e+00  1.6642214234184544e-01  5.6986820733975208e-01  6.2391037884465050e-01  7.7789301294307855e-01  6.6054962653951788e-01  9.9271620884501643e-01  1.7835327831557013e-01  4.2039871172816473e-01  8.7392907799100905e-01  1.0391454972350320e+00  6.3260100292144794e-01  1.6825917263395465e-01  1.6013852235138484e-01  4.1778700423346177e-01  7.4413283639439820e-01  5.4673446284729976e-01  3.8859731241667061e-01  4.0863353242894118e-01  9.4303760456644103e-01  1.6130534981182970e-01  2.2674269155299967e-01  7.1910851108050888e-01  4.5591460935847011e-01  4.2931882143396771e-01  4.2796866617138557e-01  1.6855076336507002e-01  1.0755100234284203e+00  8.8862458540459599e-01  5.9909953180429232e-01  4.5631711117186202e-01  7.8305311407080991e-01  9.4619128350482973e-01  3.5109069800079679e-01  1.5888427430199692e-01  7.8549778948913063e-01  1.5066982447897231e-01  1.1449389332494699e+00  1.6050551399230012e-01  7.7348085617027307e-01  7.9403371714916793e-01  6.2723880959951706e-01  8.9885511619975267e-01  5.6163212139123064e-01  3.9721857800767357e-01  1.5203128132606028e-01  7.9870359718224015e-01  5.9990354673281809e-01  7.8445721477446606e-01  1.1152101791848406e+00  3.5512633070530658e-01  6.6743746422117844e-01  4.4908605942669894e-01  4.0581244331229993e-01  9.1475430894242538e-01  7.9576215164826458e-01  1.5559695387415343e-01  1.0218932957463687e+00  9.1993804738943130e-01  9.6946058903019494e-01  7.2102496285131978e-01  1.0330043109749774e+00  1.6006895530921447e-01  3.9042031731628768e-01  5.2921401479514352e-01  3.3823496456693780e-01  3.4701671785707155e-01  5.9439386979959141e-01  3.6024590592952810e-01  6.6963981630635072e-01  7.6522166087968346e-01  1.7455014172539418e-01  1.0515571518389810e+00  6.0170471104311185e-01  6.1090916518597149e-01  3.3302372923352663e-01  5.4580953369774687e-01  3.9394138250975702e-01  7.7069299685765413e-01  5.8877740439618842e-01  6.6749678726296036e-01  8.9443915511521765e-01  3.2473109971606989e-01  1.1370770630759308e+00  1.1616002618730799e+00  1.1965717605597899e+00  1.4762838030992501e-01  2.2263689311246831e-01  1.5453660963216614e-01  3.0936861870991333e-01  7.7086822304362623e-01  5.4114385742410931e-01  7.1959016639389350e-01  7.5939961106456588e-01  1.4798642941967335e-01  8.8820500468240160e-01  9.9662218213038811e-01  8.6734673691327546e-01  5.3570414478285355e-01  3.2140630024325917e-01  1.4121155978217625e-01  1.7665869333903558e-01  1.5311376197094356e-01  6.0226910670839140e-01  8.9785483834075086e-01  1.0924411715628479e+00  1.4779992552923504e-01  6.0971856311206962e-01  4.7590513465069251e-01  1.4769628008081728e-01  7.2825908123172534e-01  7.8416703779884267e-01  5.9409679085461475e-01  3.5977516998979475e-01  5.1959711690918953e-01  1.1971844271328664e+00  3.6600490658309076e-01  6.4498919280873868e-01  5.2979144543156020e-01  5.4868244093049012e-01  4.0601136471265586e-01  1.3988975920514085e-01  4.9208296263348433e-01  9.4817172775856984e-01  8.7253403274836083e-01  9.7399865227944993e-01  3.3978598383237396e-01  1.1120175871531104e+00  6.3772974009404193e-01  1.4655030038032069e-01  7.2194193027448339e-01  9.9622044166284396e-01  8.7312028939591757e-01  1.3197758617701089e-01  8.7643583521470425e-01  4.9186721850560294e-01  5.0699112472542562e-01  1.4756147381936044e-01  1.0123431802282736e+00  6.2674582375649357e-01  8.8491952265449336e-01  9.8314721366587432e-01  9.9935409134135145e-01  5.5456174180557027e-01  1.3950360669557735e-01  3.2614470311883798e-01  1.4422982390973560e-01  6.3928734991694858e-01  1.0231600094021571e+00  3.5107630680687762e-01  1.4038545003847425e-01  7.4805921633340866e-01  1.3194860981058332e-01  5.3261687232277266e-01  1.0918765583885057e+00  1.1826808318015016e+00  1.1101702374833440e+00  8.9382538300554648e-01  1.2774332233566338e-01  1.3080805829470563e-01  1.0066387178512073e+00  9.9705208101172815e-01  1.0908666464260004e+00  7.7169141720641554e-01  4.2832462758235723e-01  3.1213915040777884e-01  3.7659783569891286e-01  3.1831523804071493e-01  2.2557822835380018e-01  6.9536343850668803e-01  9.9691353965432028e-01  5.4883832964675305e-01  1.1066152185215674e+00  8.8782361991904435e-01  1.0052078676583314e+00  9.6290950116255991e-01  9.1105035437687554e-01  9.1424964738551895e-01  3.1625843735090653e-01  1.2426351925709596e-01  1.1701400555422012e+00  1.1504131325345059e+00  1.2663339670466942e-01  4.6078746196050324e-01  1.0873964741194282e+00  1.2348168092252106e-01  8.5502102222130671e-01  6.0655489253133676e-01  1.4264260942224313e-01  7.2423183231720867e-01  1.2991767755424366e-01  7.8640107070568066e-01  6.0456134925385685e-01  1.3584304075391507e-01  1.1870681900170503e+00  3.2804606006801845e-01  3.5944364078356128e-01  3.4582570310294708e-01  8.4417921815733554e-01  7.7987494137314373e-01  7.3182981821303994e-01  2.9829438791660962e-01  1.0444781634318843e+00  9.7801346401406897e-01  7.8834327838346974e-01  4.7666011008019649e-01  9.2461477553979521e-01  7.1255228358584044e-01  4.2897395690725015e-01  7.2740835540194471e-01  3.4312923637628767e-01  1.2315538386109109e-01  3.5963265459534649e-01  1.3107801220474488e-01  1.2581225996850703e-01  8.7087937994942966e-01  7.9782538358759225e-01  7.2750826231941157e-01  8.2134417349466782e-01  6.7149631160758239e-01  9.8839211143522776e-01  8.7315559130331988e-01  8.7887335682597290e-01  1.0663954099126614e+00  3.1998796634734700e-01  5.3326991788559019e-01  1.1104026822058681e+00  9.9691977370634188e-01  5.0520001271457105e-01  3.5050534164758224e-01  1.1173311290757457e+00  1.1566952930846843e+00  8.7685575219859702e-01  3.4386220887154784e-01  2.7801052149299132e-01  1.3298287594669986e-01  1.3208068301163126e-01  9.1741822000946494e-01  6.5808715658939643e-01  6.8346302845208018e-01  4.3670861689255930e-01  7.7364848439053091e-01  9.6808297332925364e-01  2.8764556207222625e-01  5.0835924051040660e-01  1.2018440340089095e-01  5.9365484915673628e-01  9.7598247698110274e-01  1.8036492725266112e-01  4.9936563942233558e-01  1.1414006505627737e-01  1.2298321537281313e-01  1.0613314231987110e+00  8.6153080303589302e-01  1.0903312266915191e+00  3.6860462441001052e-01  3.2700296063478335e-01  3.3468751370970268e-01  9.8314142219525746e-01  9.1695184677383290e-01  8.1791720445430338e-01  3.9119293030019636e-01  1.1693860841732738e-01  1.1306667313907245e-01  4.5786118096701489e-01  5.6783329077124500e-01  8.4934376189501515e-01  6.2192036823601071e-01  5.3405363744001988e-01  4.5102326935126724e-01  4.3487086292754251e-01  4.9668750385307042e-01  4.2691856905010112e-01  4.1938270926599969e-01  1.1366721028436790e+00  1.3052074668557620e-01  2.6310467048125402e-01  8.8234589823570231e-01  1.0279220288986719e+00  9.4434606612732230e-01  4.8497964186230047e-01  4.4955460842876005e-01  2.2320707837738060e-01  3.8461866276415341e-01  6.0824400982101889e-01  7.6001939382583195e-01  3.7978681964335748e-01  3.0085445034946195e-01  7.0555399159315024e-01  1.1819698703755748e+00  2.6641057509509014e-01  5.4291251984512046e-01  2.7000828132039129e-01  1.2043825349104084e-01  2.8117224982016992e-01  7.5343323155323627e-01  4.4280618214976086e-01  4.6296368651308561e-01  1.2598501044467048e-01  8.9751409171518992e-01  5.3637488565001468e-01  5.7970462495667885e-01  7.7979940605696574e-01  7.8369599506965648e-01  8.8501366437882067e-01  4.4598832290422624e-01  2.9514204109823128e-01  3.1709823713555096e-01  5.5613287481539642e-01  4.8333950287790817e-01  6.3604960857737447e-01  1.0817073402871837e+00  7.7310117692830860e-01  5.7718663616919053e-01  4.8566227249863109e-01  5.9455369960794957e-01  6.2669153603686245e-01  3.1931547668499405e-01  3.2876953792164720e-01  4.6853209167503374e-01  5.8866034065993411e-01  9.6019764174359445e-01  6.9525713384681709e-01  6.5169406471164748e-01  3.1162212196893241e-01  8.6887602577985812e-01  9.7330425300347490e-01  8.3574413266315295e-01  8.3219557452256909e-01  7.6281300860381407e-01  9.3564011945976944e-01  5.5020072445436108e-01  4.5555504639414318e-01  6.1642117849993350e-01  1.1143917570948954e-01  9.4976225862087715e-01  1.1243426734503528e-01  5.5950738520345022e-01  8.4165314325561824e-01  2.4521125572585950e-01  4.3149847997123497e-01  6.0892858285846008e-01  4.5514330853039464e-01  3.0665951311030532e-01  1.0704758144788451e+00  1.1216150688620343e+00  8.0543968122997089e-01  2.5249005576959999e-01  1.0682438545596877e+00  1.1435937919835079e-01  2.6304735607993124e-01  1.1756456134822078e-01  2.5130439689392586e-01  2.6640653004271653e-01  4.4670038829339037e-01  2.8948466068799256e-01  2.7401462100132373e-01  4.3528972059872723e-01  1.1706640566408224e+00  1.1437120692392734e-01  4.4234720478288508e-01  6.5384684780639102e-01  1.0962045145343408e-01  9.1514479991128850e-01  8.3106711889590235e-01  2.6863713104531761e-01  6.0382362717839844e-01  1.0539267049169145e-01  2.5886038697652203e-01  4.6852735662820261e-01  1.1474768014393888e+00  1.1311813993967208e+00  4.1893776950763195e-01  7.1363154430921583e-01  6.6190571332924741e-01  1.1779834598090968e+00  1.1663016944641358e+00  1.1482911341442437e+00  7.91898