<?xml version="1.0"?>
<VTKFile type="UnstructuredGrid"  version="0.1"  >
<UnstructuredGrid>
<Piece  NumberOfPoints="3238" NumberOfCells="6293">
<Points>
<DataArray  type="Float64"  NumberOfComponents="3"  format="ascii">0.9486832980505138 0 0  0.9475040099727444 0.047287959202839 0  0.9439690776354089 0.09445835308830697 0  0.9380872894372694 0.1413939086249357 0  0.9298732684305336 0.1879779366263939 0  0.9193474359656434 0.23409462185919 0  0.906535960920579 0.279629310977591 0  0.8914706946409063 0.3244687975699048 0  0.8741890917523123 0.3685016036074568 0  0.8547341170425047 0.4116182565965337 0  0.8331541386439797 0.453711561744252 0  0.809502807783224 0.4946768684617026 0  0.7838389253953122 0.5344123305418039 0  0.7562262959355172 0.5728191593650196 0  0.7267335687513813 0.6098018695034324 0  0.6954340674096222 0.6452685161125631 0  0.6624056074021922 0.6791309235207397 0  0.6277303026847052 0.7113049044477118 0  0.5914943615282048 0.741710469307493 0  0.5537878721918187 0.7702720250750756 0  0.514704578949153 0.7969185632226012 0  0.4743416490252568 0.8215838362577492 0  0.4327994310235916 0.8442065224254403 0  0.3901812054435905 0.8647303781633826 0  0.3465929279090647 0.8831043779324287 0  0.3021429657458285 0.8992828410741055 0  0.2569418285634513 0.9132255453799296 0  0.211101893510957 0.9248978270901541 0  0.1647371258895251 0.9342706670733373 0  0.1179627958167953 0.9413207629724764 0  0.07089519164719264 0.9460305871383375 0  0.02365133086075582 0.9483884302059546 0  -0.02365133086075571 0.9483884302059546 0  -0.07089519164719252 0.9460305871383375 0  -0.1179627958167952 0.9413207629724764 0  -0.164737125889525 0.9342706670733373 0  -0.2111018935109568 0.9248978270901541 0  -0.2569418285634511 0.9132255453799297 0  -0.3021429657458284 0.8992828410741056 0  -0.3465929279090646 0.8831043779324288 0  -0.3901812054435902 0.8647303781633827 0  -0.4327994310235911 0.8442065224254405 0  -0.4743416490252571 0.821583836257749 0  -0.5147045789491529 0.7969185632226014 0  -0.5537878721918184 0.7702720250750758 0  -0.5914943615282047 0.7417104693074931 0  -0.627730302684705 0.711304904447712 0  -0.6624056074021921 0.6791309235207398 0  -0.6954340674096222 0.6452685161125631 0  -0.7267335687513812 0.6098018695034326 0  -0.7562262959355172 0.5728191593650196 0  -0.783838925395312 0.5344123305418041 0  -0.8095028077832239 0.4946768684617027 0  -0.8331541386439798 0.4537115617442519 0  -0.8547341170425046 0.4116182565965338 0  -0.8741890917523124 0.3685016036074567 0  -0.8914706946409062 0.324468797569905 0  -0.9065359609205789 0.2796293109775914 0  -0.9193474359656433 0.2340946218591902 0  -0.9298732684305336 0.1879779366263939 0  -0.9380872894372694 0.141393908624936 0  -0.9439690776354089 0.09445835308830704 0  -0.9475040099727444 0.0472879592028393 0  -0.9486832980505138 1.161801964362116e-16 0  -0.9475040099727444 -0.04728795920283906 0  -0.9439690776354089 -0.0944583530883068 0  -0.9380872894372694 -0.1413939086249357 0  -0.9298732684305338 -0.1879779366263937 0  -0.9193474359656434 -0.23409462185919 0  -0.9065359609205791 -0.2796293109775908 0  -0.8914706946409063 -0.3244687975699048 0  -0.8741890917523123 -0.3685016036074569 0  -0.8547341170425047 -0.4116182565965337 0  -0.8331541386439799 -0.4537115617442517 0  -0.809502807783224 -0.4946768684617024 0  -0.7838389253953122 -0.5344123305418039 0  -0.7562262959355173 -0.5728191593650194 0  -0.7267335687513813 -0.6098018695034324 0  -0.6954340674096223 -0.6452685161125629 0  -0.6624056074021922 -0.6791309235207396 0  -0.6277303026847055 -0.7113049044477116 0  -0.5914943615282049 -0.7417104693074928 0  -0.5537878721918191 -0.7702720250750751 0  -0.5147045789491528 -0.7969185632226014 0  -0.4743416490252565 -0.8215838362577493 0  -0.4327994310235917 -0.8442065224254401 0  -0.3901812054435904 -0.8647303781633826 0  -0.3465929279090654 -0.8831043779324285 0  -0.302142965745829 -0.8992828410741054 0  -0.2569418285634507 -0.9132255453799298 0  -0.2111018935109571 -0.9248978270901541 0  -0.164737125889525 -0.9342706670733373 0  -0.1179627958167959 -0.9413207629724762 0  -0.07089519164719296 -0.9460305871383375 0  -0.02365133086075594 -0.9483884302059546 0  0.02365133086075559 -0.9483884302059546 0  0.07089519164719262 -0.9460305871383375 0  0.1179627958167947 -0.9413207629724765 0  0.1647371258895247 -0.9342706670733374 0  0.2111018935109567 -0.9248978270901541 0  0.2569418285634512 -0.9132255453799296 0  0.3021429657458287 -0.8992828410741055 0  0.3465929279090643 -0.8831043779324289 0  0.3901812054435901 -0.8647303781633827 0  0.4327994310235914 -0.8442065224254404 0  0.474341649025257 -0.8215838362577491 0  0.5147045789491531 -0.7969185632226011 0  0.5537878721918182 -0.7702720250750759 0  0.5914943615282046 -0.7417104693074931 0  0.6277303026847045 -0.7113049044477123 0  0.6624056074021923 -0.6791309235207396 0  0.6954340674096223 -0.6452685161125629 0  0.7267335687513811 -0.6098018695034327 0  0.756226295935517 -0.5728191593650197 0  0.7838389253953117 -0.5344123305418045 0  0.8095028077832241 -0.4946768684617024 0  0.8331541386439795 -0.4537115617442524 0  0.8547341170425046 -0.4116182565965339 0  0.8741890917523123 -0.3685016036074568 0  0.891470694640906 -0.3244687975699055 0  0.9065359609205789 -0.2796293109775915 0  0.9193474359656433 -0.2340946218591903 0  0.9298732684305336 -0.187977936626394 0  0.9380872894372694 -0.1413939086249356 0  0.9439690776354088 -0.09445835308830756 0  0.9475040099727444 -0.04728795920283941 0  -1.110223024625157e-16 0 0  0.09401819085916749 0.4650811898201446 0  -0.1170837026517897 -0.4598166372700095 0  0.3396710376326679 -0.3313057795005979 0  -0.3985831684342213 0.2574323040682528 0  0.4497812206361214 0.1511184532081793 0  -0.4678296522449308 -0.1836096083159234 0  -0.2355895500368295 0.5588844465176851 0  0.6052680571897296 -0.13814848431036 0  0.4316692651305813 0.4652288238608486 0  0.1699440018198525 -0.6040168882337353 0  -0.4163959192923318 -0.4962413327582046 0  -0.642769633956783 0.08054948543602583 0  -0.1115343976851466 0.2645908534915992 0  -0.1931670123238877 -0.1956285404753415 0  -0.2498407161687224 0.05177370136134687 0  5.898059818321144e-17 0.6981687943722161 0  -0.483109708437092 0.4979263437835442 0  0.361822037928239 -0.08258351904766598 0  0.4140141091090378 -0.566746635611325 0  0.6929212426656604 0.09538900823688645 0  -0.0577528169651628 -0.6994812675480986 0  0.2627635891281025 0.6484391215838409 0  0.1382745535810828 0.2140908845129365 0  0.1054207391253911 -0.3746875801437122 0  0.5845251382931255 -0.3858631758496659 0  -0.6990994377782311 -0.1595648846227037 0  0.6286160902717877 0.3271574405247115 0  -0.6370624647935379 0.3175922410853823 0  -0.6124653864901638 -0.3738489675350367 0  -0.2494905375702229 -0.6197712340060334 0  -0.4462945377711946 0.06630684398331937 0  0.154085691826424 -0.1588211969343469 0  0.2628873183017176 0.3654604251354111 0  -0.2806326729121043 -0.3638673359729195 0  0.2026367527909965 0.03002855433820255 0  -0.1883118667610724 0.7395472415971669 0  -0.3689568220919447 0.6775183381377181 0  -0.01993573429158397 -0.1734976089647549 0  -0.06367146275187838 0.5369808941678446 0  -0.3316788968411377 0.416048485101486 0  0.7214844899758113 -0.2726059376698902 0  0.7720971247867674 -0.09675632267405895 0  0.1158073085217154 -0.7683312895489415 0  0.3018176618408421 -0.7159960909166414 0  0.4736984522064285 0.6253687923070728 0  0.5997774220600344 0.495521041348345 0  0.5469845192899859 0.01694506421294018 0  0.4856555657620147 -0.2528582988922201 0  0.2423446599045919 -0.4599048318856052 0  0.01521443790310079 -0.5542414116777824 0  -0.3574093932547061 -0.06723838122191451 0  -0.1666092886506407 0.4146684525890751 0  -0.4115626391796692 -0.6642315991087294 0  0.2992692056075354 0.2085319774104712 0  -0.572142060044865 -0.06268399171098044 0  -0.4371838101656676 -0.3391145623819656 0  -0.7707361814220313 0.1759155038859614 0  -0.5659336192050233 -0.5519960729153512 0  -0.781552063470025 -0.01355730092482357 0  0.4696031588163752 0.3098387714856638 0  -0.0407097757674429 -0.3260896361090374 0  0.1559699745134315 0.7715390038889668 0  -0.5407358600344384 0.1966829475589161 0  -0.1986272613426354 -0.7678844928272964 0  0.5718291349409204 -0.5447036247449454 0  0.03058522588194268 0.3244992985667739 0  -0.253677331372863 0.2056171147481587 0  -0.1073780288228645 0.1105396375341932 0  -0.6367212858270217 0.4731834134190286 0  0.2931219035594987 0.5069630201331456 0  0.7563577705703616 0.2377948341003486 0  0.3420380570748312 0.05826637322450373 0  -0.1206725986386512 -0.07402828271247157 0  -0.3322725603356667 -0.2301646198664473 0  -0.7419042025048581 -0.3015255626410849 0  0.1195701669044717 0.6108932180062702 0  -0.5015416239321893 0.635717225788853 0  0.02737692077249736 0.134017139808744 0  0.3773860468351642 0.7206094891915363 0  0.812860493436187 0.03242610295987979 0  -0.07388611981097105 0.8111052309222055 0  -0.2442959246965964 -0.4892922127605825 0  0.7135655733810858 -0.4024692785058807 0  -0.3642932467066346 0.5484789362268634 0  -0.4524881480946273 0.3735876073978892 0  0.2099213516485349 -0.2848275062564233 0  0.3122478006637144 -0.2035159833569798 0  0.43109624127659 -0.6963837980763679 0  -0.004731464407071888 -0.8190067012611293 0  0.5600613423512718 0.2179439150874347 0  0.4468733578206618 -0.4269132077142946 0  0.4872830744017452 -0.09398863600514806 0  0.6664633094267685 -0.02789868416369569 0  -0.1060590692061801 -0.5842636330575839 0  0.2930869539360575 -0.5926370091989965 0  0.7165056531269813 0.4136747317087512 0  -0.6713889199795591 -0.4826957611142691 0  -0.1650615436669499 -0.3170959485608871 0  -0.7560359509185862 0.3411364121550141 0  -0.8181202307149236 -0.1442566701384753 0  -0.5906147236861463 -0.2403599348016739 0  0.1272020529197239 -0.4923009383391831 0  -0.1391534729758148 0.6301655208396788 0  -0.3568886656162428 0.1455060335331444 0  0.06164593118022811 -0.2623143376591542 0  -0.2389144395603171 -0.06622081533685589 0  -0.3247128298437102 
[...]
<PointData  Scalars="f_28-2"> 
<DataArray  type="Float64"  Name="f_28-2"  format="ascii">0.0000000000000000e+00  0.0000000000000000e+00  0.0000000000000000e+00  0.0000000000000000e+00  0.0000000000000000e+00  0.0000000000000000e+00  0.0000000000000000e+00  0.0000000000000000e+00  0.0000000000000000e+00  0.0000000000000000e+00  0.0000000000000000e+00  0.0000000000000000e+00  0.0000000000000000e+00  0.0000000000000000e+00  0.0000000000000000e+00  0.0000000000000000e+00  0.0000000000000000e+00  0.0000000000000000e+00  0.0000000000000000e+00  0.0000000000000000e+00  0.0000000000000000e+00  0.0000000000000000e+00  0.0000000000000000e+00  0.0000000000000000e+00  0.0000000000000000e+00  0.0000000000000000e+00  0.0000000000000000e+00  0.0000000000000000e+00  0.0000000000000000e+00  0.0000000000000000e+00  0.0000000000000000e+00  0.0000000000000000e+00  0.0000000000000000e+00  0.0000000000000000e+00  0.0000000000000000e+00  0.0000000000000000e+00  0.0000000000000000e+00  0.0000000000000000e+00  0.0000000000000000e+00  0.0000000000000000e+00  0.0000000000000000e+00  0.0000000000000000e+00  0.0000000000000000e+00  0.0000000000000000e+00  0.0000000000000000e+00  0.0000000000000000e+00  0.0000000000000000e+00  0.0000000000000000e+00  0.0000000000000000e+00  0.0000000000000000e+00  0.0000000000000000e+00  0.0000000000000000e+00  0.0000000000000000e+00  0.0000000000000000e+00  0.0000000000000000e+00  0.0000000000000000e+00  0.0000000000000000e+00  0.0000000000000000e+00  0.0000000000000000e+00  0.0000000000000000e+00  0.0000000000000000e+00  0.0000000000000000e+00  0.0000000000000000e+00  0.0000000000000000e+00  0.0000000000000000e+00  0.0000000000000000e+00  0.0000000000000000e+00  0.0000000000000000e+00  0.0000000000000000e+00  0.0000000000000000e+00  0.0000000000000000e+00  0.0000000000000000e+00  0.0000000000000000e+00  0.0000000000000000e+00  0.0000000000000000e+00  0.0000000000000000e+00  0.0000000000000000e+00  0.0000000000000000e+00  0.0000000000000000e+00  0.0000000000000000e+00  0.0000000000000000e+00  0.0000000000000000e+00  0.0000000000000000e+00  0.0000000000000000e+00  0.0000000000000000e+00  0.0000000000000000e+00  0.0000000000000000e+00  0.0000000000000000e+00  0.0000000000000000e+00  0.0000000000000000e+00  0.0000000000000000e+00  0.0000000000000000e+00  0.0000000000000000e+00  0.0000000000000000e+00  0.0000000000000000e+00  0.0000000000000000e+00  0.0000000000000000e+00  0.0000000000000000e+00  0.0000000000000000e+00  0.0000000000000000e+00  0.0000000000000000e+00  0.0000000000000000e+00  0.0000000000000000e+00  0.0000000000000000e+00  0.0000000000000000e+00  0.0000000000000000e+00  0.0000000000000000e+00  0.0000000000000000e+00  0.0000000000000000e+00  0.0000000000000000e+00  0.0000000000000000e+00  0.0000000000000000e+00  0.0000000000000000e+00  0.0000000000000000e+00  0.0000000000000000e+00  0.0000000000000000e+00  0.0000000000000000e+00  0.0000000000000000e+00  0.0000000000000000e+00  0.0000000000000000e+00  0.0000000000000000e+00  0.0000000000000000e+00  0.0000000000000000e+00  0.0000000000000000e+00  0.0000000000000000e+00  0.0000000000000000e+00  1.2561018097720615e+00  8.9973542227682468e-01  9.0065268725688907e-01  8.9923163121151894e-01  9.0028208357791251e-01  8.9916561892195523e-01  8.5636957530980329e-01  6.7557401027499775e-01  6.4584881279840711e-01  6.2233449942760277e-01  6.3409534083017571e-01  5.9612400913737240e-01  5.9499888147581270e-01  1.1288810964410716e+00  1.1382290694166199e+00  1.1547241915287190e+00  4.9793906256982978e-01  5.0631453496712064e-01  1.0398033023507611e+00  4.9223765310599343e-01  4.9540607396179831e-01  4.9112493255191392e-01  4.9447723114614983e-01  1.1543422351745571e+00  1.0168266420548693e+00  4.9397362457529331e-01  4.6116413207311130e-01  4.7713771011439315e-01  4.7179403493421235e-01  4.6221460629530753e-01  5.5673935580040113e-01  9.3498507809441056e-01  1.1790252320353247e+00  9.3575809280736311e-01  9.2257624999214494e-01  1.1902418580777858e+00  3.7392837854996364e-01  3.6096014643897567e-01  1.2091941412029532e+00  7.9503172704589287e-01  8.0895275546494227e-01  3.6057412828023255e-01  3.4819641927356271e-01  3.4974341992242047e-01  3.4987818376125107e-01  3.3532001129959782e-01  3.4868332502431953e-01  7.8137074803779971e-01  7.8243009968049915e-01  8.2908722388815526e-01  7.6968984587330735e-01  1.0462121507538158e+00  9.4097099254787864e-01  3.4084956265496724e-01  1.0455049426069380e+00  7.3245387663676453e-01  7.7152862781214748e-01  3.2444991312505150e-01  3.2275350380540929e-01  3.4217893324810472e-01  7.5575183987592642e-01  1.0878899814356608e+00  3.3078607401132126e-01  7.3227748309127139e-01  3.1928944438165846e-01  3.2598826894254213e-01  1.0876207175303954e+00  1.0897529699445121e+00  1.2187018907237348e+00  3.1943792886457528e-01  7.1396910020207549e-01  3.1977269453478879e-01  1.0680264804790398e+00  1.2249111054494424e+00  9.9901681529594455e-01  3.0624313910679957e-01  6.4545842684607480e-01  2.8903292406627534e-01  1.2294987523666656e+00  2.8218170358888767e-01  2.8079360155575273e-01  2.7993213933245997e-01  7.8295582221385351e-01  2.7128483057004593e-01  5.7630566267660377e-01  7.1121258724571612e-01  1.0593394509629872e+00  1.0373692867642044e+00  2.7150847803262451e-01  2.7165829858612001e-01  6.8492093159463474e-01  6.5229177564492591e-01  8.6676608003055666e-01  5.6137946882029766e-01  6.9845119566481295e-01  5.6970024873000569e-01  2.5423910973175962e-01  2.5566521738321640e-01  1.0559627878358764e+00  2.5107490186267273e-01  2.4730125991710478e-01  6.1644534998340494e-01  8.4721201576802141e-01  5.9933729970573435e-01  1.0218359688371443e+00  1.1438426589037627e+00  1.1611543103596109e+00  2.6268779103948509e-01  5.7147932663849499e-01  5.5650492499753079e-01  1.0472103933479753e+00  9.5502523596159616e-01  2.9084798986531035e-01  9.6399053008353586e-01  5.5920696410645843e-01  5.1744423231894021e-01  2.5147735088467438e-01  5.5885376503862827e-01  1.0320467167440481e+00  1.1532500994518360e+00  1.2363821190180353e+00  5.2865144063851299e-01  5.2732296194974715e-01  9.1144141706551751e-01  9.0807160384654717e-01  2.4788740233276504e-01  2.3655160136079090e-01  2.3682524555532158e-01  9.3767672492691168e-01  9.5395926597886282e-01  5.2297155469059209e-01  5.4126886807892061e-01  7.7021907124742872e-01  2.3343475202204092e-01  5.1033134107490075e-01  1.2389949071953992e+00  1.1516323324331073e+00  7.6721228563269805e-01  1.1516739039944035e+00  2.2074756327153813e-01  2.3710685442277779e-01  7.6321689445773211e-01  2.2998946228268799e-01  2.2903990598701549e-01  6.5864014565052598e-01  7.7405668229486713e-01  4.9833080739067737e-01  1.0622988602765715e+00  7.7486410674443618e-01  2.3287604860263758e-01  9.1975869043768665e-01  7.8726148513417726e-01  2.3421981573022493e-01  2.1142200168482217e-01  1.0557002850707093e+00  2.8909342210033512e-01  4.3304495889921191e-01  4.5160900526827180e-01  9.4123854535797202e-01  1.0432285112865640e+00  4.6803148160430391e-01  8.9345782671970420e-01  1.1752808122212526e+00  4.1424359128593519e-01  4.0624646503424605e-01  7.7620112081018466e-01  9.3493571186402646e-01  1.2169793068935373e+00  1.0832990956372555e+00  1.0420690389628195e+00  1.9700463041598917e-01  1.9964918784569377e-01  1.2193481887504027e+00  1.9502869134104450e-01  1.9620290485432834e-01  4.5050237164581869e-01  6.4963181191815111e-01  1.9811944712108592e-01  4.3032952500574667e-01  3.2610715090082343e-01  1.9924993542921823e-01  8.9345751436227006e-01  6.4085581451641194e-01  7.8126774658224485e-01  9.4257185897023177e-01  2.1198524867137472e-01  1.9664811039077520e-01  9.8418179341180556e-01  2.0623992406280434e-01  1.2442035708900812e+00  1.9693078163141167e-01  1.9912923346589323e-01  1.1669576605378955e+00  1.8968433612087962e-01  9.2374153292428451e-01  4.1772869330787593e-01  6.3690932243853315e-01  8.0949370471629511e-01  4.2414538290114318e-01  4.8230320126114157e-01  4.9583191288068867e-01  6.9781846926225111e-01  8.1902053527657337e-01  6.6939621088313661e-01  4.8602928169353998e-01  1.8304438297240103e-01  1.7804568012633934e-01  1.7981477612414634e-01  1.7882516746120075e-01  4.2071500038411458e-01  1.1301576026477538e+00  3.5680697309092613e-01  3.9910053519267208e-01  1.8983171158874446e-01  1.9096442355389420e-01  1.2035979689142429e+00  7.7332331573452151e-01  1.2022029577794866e+00  4.2440907140762318e-01  7.0972311708028479e-01  1.1996272103975270e+00  1.8727391710600999e-01  7.7311853218581827e-01  6.4115018322584383e-01  7.0446476571816030e-01  6.3328828253034586e-01  3.8165958731191651e-01  6.4382672724577716e-01  3.9419174903133403e-01  4.0568501662728312e-01  1.1260615092022219e+00  1.7090037481160372e-01  4.5573295260817254e-01  1.7615629225996726e-01  1.8271534360159966e-01  4.4529581656872536e-01  6.9266745747392944e-01  8.5113950773433922e-01  6.3035382727488831e-01  1.7729672991825782e-01  9.2692203700522979e-01  7.5116071029272458e-01  9.9466790407094330e-01  7.1796603144118598e-01  4.7245577467106392e-01  6.0362212297633788e-01  1.1718626647485857e+00  6.1416824897954447e-01  8.3040826758421082e-01  1.7715591046452148e-01  3.8294370832044544e-01  1.1085142404604535e+00  8.8694835870966626e-01  7.9436554671861670e-01  9.1589768738539556e-01  4.0362798768560265e-01  3.9014777783964749e-01  1.7483113897820615e-01  1.7715528282309573e-01  1.7341394350128736e-01  9.1974426977203350e-01  3.9193110687840677e-01  6.5152021279774874e-01  8.8732222680031303e-01  1.6413222188440987e-01  1.0920274879004621e+00  3.8083334950292796e-01  3.6388546485109230e-01  3.8110918322765985e-01  5.2385734472018286e-01  1.2466720851481414e+00  8.0006410200949052e-01  1.1502223222124672e+00  1.0009143351644207e+00  9.9974293344632736e-01  1.1561986451285675e+00  1.0762797985549513e+00  1.0084889617457844e+00  1.6154438050804379e-01  6.2689538425059677e-01  5.5358464837477062e-01  6.2521488720687846e-01  1.2053044144867096e+00  2.2888020846620658e-01  5.9956888860788626e-01  1.6793139320117884e-01  4.6306354850534093e-01  1.0885913176402551e+00  5.6953726630753598e-01  1.1235426290996247e+00  2.1185038609312370e-01  1.2482616189951401e+00  1.0847177675990665e+00  8.4099853416831560e-01  5.3555520743694474e-01  3.5125937901750509e-01  1.1118923860107925e+00  7.8120102313702577e-01  4.8349436330924284e-01  1.6657418192923504e-01  2.1107262767432530e-01  3.7529169822412628e-01  5.2823450421996299e-01  1.1086977175926698e+00  4.6819422166003127e-01  4.9273576055463991e-01  1.5083590298545785e-01  8.4532756393494690e-01  6.6409911502625041e-01  1.7038464541517934e-01  7.8572972255784834e-01  1.0093875221222925e+00  1.5805975004330663e-01  1.6420289718647760e-01  8.5007189686789342e-01  6.0830357196878559e-01  6.6397425239407004e-01  9.1900761645960982e-01  3.6425807921419384e-01  7.3845057058465202e-01  1.5943574342915634e-01  1.4932090900031947e-01  3.4257072213943768e-01  7.1654079236789858e-01  1.1327814941264795e+00  9.8966706867847531e-01  1.0451421869436508e+00  7.0319629626601088e-01  1.1868195494945062e+00  3.6991283213286613e-01  1.6117649250562915e-01  1.2493862672925218e+00  1.4701278021864750e-01  1.0776113254997985e+00  6.4417583955963931e-01  9.3990752373270836e-01  3.3382789693181120e-01  8.2474393263469770e-01  3.5476905184395779e-01  4.8855521321352130e-01  3.1775595218040731e-01  1.6356261524488808e-01  1.0307835706334629e+00  3.3096430248221953e-01  1.0063610363018265e+00  2.7442112253605450e-01  9.8683723127529688e-01  1.4969029541814186e-01  7.8983962575825029e-01  1.1070036524231539e+00  1.1965707571850255e+00  6.5467387541209110e-01  1.5943841395027450e-01  4.0812049214606144e-01  1.1492495030408920e+00  3.9127245663432175e-01  6.7009997882329586e-01  9.3548953866986218e-01  9.7952890318231634e-01  9.8684174825905713e-01  1.5099726869137342e-01  1.4338144078738979e-01  2.2685884356524041e-01  2.1593475581418764e-01  8.8853426965763560e-01  5.9685655930996895e-01  3.1815327672756216e-01  6.4882100064958470e-01  1.5222137476427808e-01  8.2876859720352758e-01  2.9782153683906659e-01  7.4666437606395142e-01  1.4659496064386637e-01  3.7938415883427845e-01  3.6100213219326094e-01  1.1390128189339939e+00  1.2498603770472512e+00  4.5984921188948213e-01  7.9447374160520301e-01  5.9239321802407752e-01  1.3962366384681260e-01  1.3915768001411005e-01  4.9857637289243412e-01  5.6609685754173622e-01  8.0632972357195221e-01  4.9812597157979172e-01  9.7909535082078314e-01  1.4499975815346738e-01  1.3087403205305997e-01  3.1050433141020112e-01  1.0212265082223082e+00  2.2427321289989993e-01  4.6473842296117046e-01  4.9214148814820563e-01  9.6312808353971247e-01  8.1701151946040751e-01  7.6182262559387259e-01  4.5195299325052696e-01  5.8102535194376015e-01  7.4632430546303030e-01  7.9989790788244020e-01  1.1162358706933193e+00  1.0005338317248280e+00  1.0946194298450203e+00  3.1139785854208885e-01  5.6143477988140100e-01  1.3253226472914909e-01  1.2953760038589479e-01  3.4989183965773851e-01  6.5484304026553075e-01  4.5836993864489384e-01  1.2983246896646874e-01  3.6257001970252051e-01  1.2833589796995004e-01  1.1018275612655066e+00  7.0477490024119394e-01  1.4657079058277381e-01  6.9207952069928758e-01  1.2057673365679424e+00  1.2103983745638969e+00  1.2253665320119040e+00  1.7453672009019394e-01  2.9059143645100055e-01  3.1332861842025744e-01  8.5981843651836865e-01  3.5516341668767226e-01  5.5706814516074787e-01  9.7666062866415893e-01  1.2784944552921160e-01  5.9880415028054501e-01  1.0489442326017597e+00  9.7150192255157752e-01  5.3497619116504891e-01  1.2667575298226422e-01  1.2114921696637422e-01  1.3628782459557842e-01  3.5540059087120363e-01  6.9613779799576780e-01  1.7752546391510496e-01  7.4465253309264545e-01  1.0174548452359184e+00  6.3574327633747296e-01  1.2374970889187806e-01  9.5772472076229698e-01  9.7016602552873987e-01  7.6602562480612424e-01  5.7928198147287779e-01  1.0738449901807952e+00  6.0383184075133034e-01  5.2086857267113740e-01  1.0930039311894397e+00  1.0112312936075671e+00  1.0982151077693458e+00  1.1750079368415682e+00  1.1084116096607184e+00  5.3457103976333842e-01  6.8776581564763095e-01  8.8126510665371260e-01  1.1048815441055451e+00  1.1745745606945308e+00  1.1716702765894680e+00  4.8257936296608145e-01  1.0320857893129904e+00  8.6873281666024882e-01  3.5478021757878020e-01  3.6945829196675067e-01  1.2050823516407652e+00  3.9236835194837072e-01  3.6073678317868207e-01  2.9342468366407304e-01  1.2011833904619022e-01  2.9811914242408483e-01  6.4096748241256940e-01  4.5952858999862334e-01  1.2650342622470079e-01  1.4108818512150048e-01  8.8597751737695973e-01  1.2111764829453368e-01  4.9139205194129776e-01  6.5845805872934371e-01  7.5099261445806498e-01  4.1321855040229183e-01  7.3428740199391318e-01  1.2513318204158877e-01  3.3637678252771691e-01  1.1714569039522933e-01  1.2299580645088390e+00  1.1862512535336456e+00  1.3090958176312609e-01  4.2730450391863795e-01  4.6718746161725139e-01  2.7974235728480573e-01  1.2439558442395168e-01  1.2326197913534208e-01  1.2176704663476386e-01  2.8473586042519772e-01  6.5991234545708666e-01  4.9150893139108937e-01  1.1644278211433735e-01  1.1812335946875793e-01  8.6459770732053942e-01  3.4769486865076771e-01  3.3657833350619559e-01  1.2131494914531242e+00  1.2311086222111851e+00  1.2519540600177428e+00  1.1393716343146454e+00  9.3501051515741118e-01  6.6078463983796409e-01  8.6950578546502455e-01  8.3063135703744673e-01  2.9002475617698320e-01  5.1831219463008849e-01  3.8637066800199160e-01  3.0449720254021401e-01  2.7102098848265949e-01  2.9076135194193248e-01  3.0791810276940390e-01  1.1814181770051944e-01  1.0117039630267404e+00  8.4729318786770003e-01  7.8131908817305717e-01  3.9940000102004009e-01  2.7548611239883386e-01  3.0082269607966422e-01  5.9432880401239019e-01  5.5367660453903378e-01  1.0035878970316736e+00  8.7293808421342989e-01  3.7969118403630114e-01  9.8723781640832853e-01  8.2665355912250249e-01  1.2578697736191813e-01  1.0850917509327480e+00  4.1347104785352040e-01  5.4623428738948177e-01  9.7938119914174626e-01  4.9512560112990311e-01  8.4159278395671167e-01  5.6204000990750491e-01  3.9101542402517764e-01  8.6409637456711264e-01  1.1528005542327524e+00  2.5829017522062497e-01  1.1616073617274807e-01  4.2573616469070519e-01  6.3465195092675020e-01  1.2446116399793681e+00  6.5848826546313655e-01  6.7146209312466154e-01  2.7806726813643673e-01  4.2492227417428036e-01  7.2369566744307823e-01  2.9364930048657217e-01  5.5859134006788536e-01  3.9163611848262092e-01  2.5646136134966424e-01  6.2067588945791463e-01  3.7273200209548213e-01  2.7516871171033952e-01  4.4698722144489861e-01  2.7027832575405997e-01  7.0866917610861579e-01  1.0976422598260331e-01  1.2249933331283211e-01  2.5534231103546773e-01  5.2817774261896555e-01  9.3152906746482100e-01  7.4036052287631360e-01  1.2346619806620935e+00  7.0565254425444834e-01  5.0969137772537432e-01  1.1646130749944135e+00  3.6951458308206236e-01  5.2936802507835989e-01  2.8319132550511911e-01  8.7245777798820567e-01  2.4051052998793801e-01  1.1921928406834595e-01  2.7766980074566217e-01  3.1367618616406978e-01  2.9380382031916374e-01  1.2093020101812562e+00  2.9871935677967487e-01  1.1592962375286471e-01  1.1656730747641567e-01  7.7976972678832024e-01  4.0471863625612614e-01  5.3295255740624625e-01  2.6128129962702951e-01  1.1356725900812883e+00  1.1683186509973018e+00  9.3100135712771870e-01  1.2292825807676717e+00  1.0728962154181106e-01  4.7096436107148537e-01  1.2210291208691344e+00  1.2507680899025857e+00  3.0973372238035562e-01  1.1066570439649757e+00  8.5614524929789138e-01  1.0582118600771973e+00  6.6127412996929480e-01  7.3676259077759210e-01  4.1902889993558662e-01  4.6114041415449680e-01  8.6443290235799541e-01  8.2560759902749059e-01  1.0484593638033726e+00  1.5015338365430250e-01  2.7090779678514748e-01  4.3992912715359761e-01  4.3454658250777445e-01  4.2736244118270394e-01  7.8700897201282105e-01  1.1608511259342169e+00  8.6556895672644973e-01  1.1817736774773311e+00  1.0069767394530684e+00  8.8268981160479831e-01  7.0003550709585483e-01  1.0788095351872651e+00  8.6025268954552403e-01  1.1868537209654439e+00  1.1109324387353987e+00  1.0454102496982729e+00  5.6325852236962703e-01  9.9207042765322606e-01  9.1770106434212206e-01  1.1271680454017894e+00  8.1502341190716965e-01  8.0505426916671152e-01  7.1260153262751147e-01  8.4554873304874800e-01  6.8289807244105905e-01  1.1285014253948433e+00  1.0379756776100384e-01  1.2507104598237398e-01  9.4202830303400753e-01  1.1930843188463212e+00  9.9361779405549322e-01  6.4189154343949606e-01  5.4051717226425078e-01  9.0131891221887073e-01  5.0207842328353181e-01  5.5676993924266871e-01  7.1788825097624542e-01  5.7022183212532640e-01  1.0798694362167734e-01  6.3426418432641851e-01  1.2385739707478700e+00  1.1164230570071836e+00  1.8857674108823486e-01  1.1841426549017492e-01  3.6894875231908825e-01  1.1854236105531708e-01  2.6511435745490480e-01  4.8376696792813051e-01  7.4165932696738068e-01  8.3972564767499858e-01  1.0514756043906999e+00  1.0716147943322611e-01  2.8767189790006537e-01  1.2130664033461994e-01  1.0464204668748406e-01  1.2290555860314578e+00  1.1681854468806348e-01  6.8743147824469708e-01  8.4792994245053088e-01  7.5451191400734430e-01  2.4566749868528454e-01  2.4478576163202062e-01  5.0350092274411551e-01  5.9059817621454258e-01  6.5494823559738802e-01  9.5050209750544146e-01  9.2193519323612649e-01  9.8658692877417953e-01  4.0990891446647076e-01  1.4890867319813514e-01  9.0127809568840089e-01  1.0031236582271477e+00  9.7887719316772526e-01  1.0811149723181701e+00  7.0398515681949025e-01  7.4792796539202522e-01  8.6197735238685846e-01  3.3391459757209918e-01  5.8503381290209344e-01  4.3123016722811525e-01  9.6821381618970359e-01  1.2737112347123453e-01  7.2112496137549020e-01  1.1895507947805850e+00  1.2273715579990387e+00  4.2920536413907628e-01  1.0411934575813480e+00  9.6817575279156298e-02  9.8375789822331738e-01  3.7969488844518118e-01  5.9951659665913204e-01  4.6441458580645845e-01  2.5891405900922659e-01  4.0930237288337