<?xml version="1.0"?>
<VTKFile type="UnstructuredGrid"  version="0.1"  >
<UnstructuredGrid>
<Piece  NumberOfPoints="387" NumberOfCells="708">
<Points>
<DataArray  type="Float64"  NumberOfComponents="3"  format="ascii">0 3 0  0 -3 0  6 -3 0  6 3 0  3 -3 0  6 0 0  3 3 0  0 0 0  3 0 0  0 -1.5 0  1.5 -3 0  1.5 3 0  0 1.5 0  6 -1.5 0  4.5 -3 0  6 1.5 0  4.5 3 0  4.25 -1.25 0  1.75 1.25 0  2.25 -1.5 0  4.5 0.75 0  1.541666666666667 -0.2083333333333333 0  3.219827586206896 1.521551724137931 0  1.125 -1.875 0  4.875 1.875 0  0.8702651515151515 0.631628787878788 0  2.25 2.214285714285714 0  3.316176470588236 -1.904411764705882 0  5.214285714285714 -0.75 0  5.03125 -2.03125 0  0.96875 2.03125 0  4.041666666666667 -0.2083333333333333 0  0.8205128205128206 -0.9134615384615387 0  3.942582294752138 2.189194098250713 0  3.061487638533674 -0.968243819266837 0  2.192708333333333 0.4427083333333334 0  4.157850026972511 -2.182329047049442 0  2.331456616463011 -0.5285296485744057 0  3.654761904761905 0.5654761904761902 0  5.25 1.125 0  2.563673341677096 -2.280663329161452 0  5.126674107142857 0.1283482142857142 0  0.75 -3 0  0 -2.25 0  6 2.25 0  5.25 3 0  0.7680051888903191 -0.1384245958639337 0  1.617229471026718 -1.006949429867069 0  4.218940341429579 1.468686552856807 0  3.75 -3 0  2.25 -3 0  0.75 3 0  5.25 -3 0  6 -0.75 0  0 -0.75 0  0 0.75 0  2.25 3 0  6 -2.25 0  0 2.25 0  3.75 3 0  6 0.75 0  1.787573018358365 -2.279142327213878 0  3.195025188237337 2.273430909158844 0  2.528159645294386 1.151699106559287 0  1.041598427383826 1.322848427383826 0  1.520951704545454 0.4634232954545453 0  1.580357142857143 2.325892857142857 0  4.919642857142857 -1.361607142857143 0  4.54981623521892 -0.6483700862895494 0  2.99317863826574 0.6697091957925523 0  3.450169349029507 -0.4574865881858001 0  3.605016126014028 -1.323102984840902 0  2.745144658907412 1.882241931337371 0  0.4898065586600511 1.092777516238393 0  0.5 -1.875 0  1.217028489597945 -2.469323836800685 0  1.659912685567181 -1.604738056701542 0  5.4375 1.6875 0  5.34375 2.34375 0  4.52741779500503 2.384139265001677 0  3.375 -2.514804579549941 0  0.5446428571428571 -2.455357142857143 0  2.766554087216865 -1.745795909102064 0  4.525516559010988 0.1490283123570637 0  3.87554132162248 -0.8280516069565407 0  4.53622906132958 -1.76963146596888 0  0.4243951612903226 1.875 0  0.554851858345021 2.446861709948876 0  5.575604838709677 -1.875 0  5.445148141654979 -2.446861709948876 0  4.875 -2.575604838709677 0  1.440573466105381 1.721823466105381 0  2.193519495405082 1.631799415080963 0  5.472630128027442 -1.330813078900983 0  4.750126894286386 1.343813447143193 0  5.607142857142857 -0.375 0  2.625 2.607142857142857 0  0.3921763197810531 0.375 0  5.60901753622775 0.3750000000000001 0  1.125 2.613454943235572 0  3.701856738980915 1.163867513386733 0  3.736112850688509 1.696746876851408 0  3.519183195491339 0.06065128742606851 0  3.973620778217027 -1.693401606145563 0  0.8125 -1.444978632478633 0  1.256657745408029 -0.6381828923025001 0  0 -1.125 0  5.019997778514942 0.6475044429701156 0  4.125 3 0  1.285569332703024 0.8955310332120207 0  0 -0.375 0  0.4638922275641027 -0.5625 0  2.056635259780241 -0.07226025978024064 0  2.130475508371123 -1.000827820434028 0  2.677484372338113 -1.267299126394495 0  2.848680878891876 -0.4956836878192376 0  4.937901885089369 -0.3340245904575954 0  4.393563081308854 1.919544166973803 0  4.053859126323572 0.2813938488760716 0  1.181051704329518 0.1167440895674965 0  1.971354166666667 2.607142857142857 0  4.875 3 0  2.519350561152006 0.08093582719875507 0  3.139443301924015 -1.442524927271905 0  6 2.625 0  1.849169256239503 1.945480934753207 0  1.867196483071171 0.7892354369530077 0  1.192506522009051 -1.184888428863342 0  3.375 3 0  3.603234392481833 2.536866305538572 0  3.846752908916648 -2.537707634073423 0  2.014339897513945 -1.886932065281681 0  4.038392037966526 0.8363324773944992 0  4.421242701722609 -2.552534687860327 0  3.715389848650903 -2.108856956172843 0  2.985668138820625 1.127780908772207 0  0.4500794934449803 -1.173696061598557 0  3.366760888116476 0.8891914618875614 0  1.869163043700093 -0.6107175804171328 0  2.175114838273305 -2.53928723780967 0  3.014417665538299 -2.241523065744933 0  2.625 -3 0  2.819968145332426 -2.617202329573456 0  5.625 1.3125 0  5.563263538826679 0.814027077653358 0  5.625 3 0  2.550041671270923 0.7074928970804664 0  4.014583091741168 2.59891853892166 0  0.6440729668673318 1.499523832583132 0  5.219449799568244 -1.660557808485412 0  3.474012636702472 -0.9300738420779746 0  0.8125 -2.142857142857143 0  1.875 -3 0  4.945010515846405 2.554471797033147 0  2.611388969012422 -0.8478354915063726 0  3.223746055611014 0.3371683159691745 0  4.843939757110898 -0.9483610977948225 0  4.66556954816842 -2.220888354477256 0  4.125 -3 0  4.448108395110625 -0.2524000502731018 0  5.63671875 2.05078125 0  2.822484133964224 1.491327727709286 0  3.378213092764193 1.903125093887009 0  5.607142857142858 -0.9231200445788541 0  2.12639693023183 1.100450516019641 0  5.625 -3 0  0.375 3 0  0 2.625 0  6 -2.625 0  0.3931307155906299 -0.01856779822591927 0  0.7651723094668359 0.253768144801553 0  0.8549199714190221 -0.5218333744252657 0  1.421989550604507 -2.133299471886336 0  1.582611957351803 -2.615166692128227 0  4.420331038793115 1.133144382396504 0  0.375 -3 0  0 -2.625 0  5.078156723571596 1.54697017071479 0  1.877250715260938 -1.288801575378032 0  2.409169073010687 -1.916147168931784 0  1.146151077069952 -0.268000681695328 0  1.726784828652036 0.1335728643263411 0  2.745628549924675 0.3838821021397905 0  3.011490900297165 2.613625569196862 0  5.62463365164608 -4.137655439684362e-05 0  1.875 3 0  1.125 3 0  6 0.375 0  2.625 3 0  6 -1.125 0  6 -0.375 0  4.875 -3 0  6 -1.875 0  3.375 -3 0  1.125 -3 0  0 -1.875 0  0 0.375 0  0 1.125 0  0 1.875 0  6 1.125 0  6 1.875 0  4.813017731148975 0.9677363687196439 0  2.807371623148303 2.264962208227767 0  0.3692953377255688 0.7436406761680247 0  5.615625 2.615625 0  0.9395725521479794 0.9812935874921043 0  1.390920759130215 1.238984550166515 0  0.9588795022085095 1.672288500195331 0  0.87712392565124 -2.641031728267331 0  0.3665732993114588 -1.532068934251388 0  1.841944504733106 1.591700334213738 0  4.832970185136452 0.3385359233091246 0  4.169083540479082 -0.5746148619765254 0  5.281697083409333 -0.2046640461936881 0  4.072845380968044 1.784516523483641 0  1.293029195762321 -1.543079049035419 0  4.878733886054284 -1.720697370582964 0  3.609167475697567 -1.687579152754035 0  4.836981942878573 2.222259978217028 0  4.204938267037067 -0.9128589669335569 0  5.183079748175263 -1.111742407358677 0  1.22880920402559 2.273525645756405 0  1.469404041858679 2.654509729682302 0  4.566761045622856 -1.414165869120005 0  4.531680518427715 1.606803989975667 0  1.918929241273175 2.27471131819245 0  3.526908551984126 2.207147627530056 0  1.85683899811842 0.4533569963423589 0  1.173935704088662 0.4636872214645547 0  2.116602160898525 -2.207718541460878 0  4.51821874648995 -1.042568353750147 0  2.721551512787618 -0.1859357475290837 0  5.294921875 2.001953125 0  5.288671874999999 2.670703125 0  2.199940744527116 0.7756512213396931 0  4.090519467638897 1.163401080812838 0  2.298177083333333 2.670581371753247 0  2.484362362207526 -2.687319997637033 0  3.300530569898859 1.207053005217563 0  3.936078051808127 -1.362164062673065 0  5.341218841330105 0.5689885832563615 0  4.226314635599414 0.5638853401248238 0  2.524510956818563 1.635483567726497 0  0.3219546452225031 1.389066019009203 0  3.139061555368706 -0.3133905221155423 0  3.145569907612562 -0.6461828528638952 0  3.701427442033566 -0.2272880199383185 0  1.686782510365738 -1.934662341426927 0  2.427696494631844 1.944064773844184 0  3.901817839425732 1.422433381251312 0  2.356489883772755 -0.2025512972825912 0  4.820757576351118 -0.01647699434507374 0  3.064415631228375 1.809719380809516 0  4.643002705009462 2.69782572459795 0  4.31624250429496 2.728112685900672 0  1.520100694408069 -1.314302747998057 0  3.754559308601717 -0.5375020107416889 0  0.25 -2.0625 0  0.8125 -1.826636904761905 0  4.861738621091127 -0.6367294570749906 0  1.545149590740081 2.015832101819233 0  3.857113324620078 0.04127675193819436 0  0.2479605082936806 -0.9375 0  4.21293081604216 2.352874368135467 0  3.123697687162562 -2.708090473740421 0  3.415275466010259 -2.202892416689829 0  3.601103065320932 -2.727566580522146 0  1.558629964945672 -0.5289921609136927 0  3.324859026263307 -1.198136798699183 0  2.424350759683917 -1.092246517929194 0  2.746461744851735 0.9398108087856579 0  0.8882026075771248 2.364936378889839 0  0.8066140242673685 2.679750706449505 0  4.504454978490482 0.4491616076730165 0  4.26881784709759 -0.009649566552704852 0  1.3125 -2.75919801263958 0  1.120577805361368 -2.179971784090952 0  3.734048623985226 0.8602850349907256 0  3.527828882622877 1.432983527791925 0  1.959527908877504 -1.578124930685265 0  0.7602573574724077 1.220872343399509 0  0.6691217533356228 0.8531987603309893 0  1.877213035764122 -2.564340152892596 0  3.32172153715047 2.685939810104955 0  4.285565286275464 -1.569057178671076 0  4.227521511146333 -1.876903861267543 0  5.34375 1.40625 0  5.71875 1.59375 0  1.56245959534423 0.766197796710638 0  0.2458241530773257 2.4375 0  0.2794123857609179 2.138568368155198 0  5.754175846922674 -2.4375 0  5.720587614239082 -2.138568368155198 0  0.6472458227887359 2.124973059628837 0  5.124241021325378 -2.352544055105642 0  5.189172233440652 -2.675873509996353 0  5.364643151640443 -2.12768524739804 0  2.298896485720138 1.348573610321417 0  0.6008689899200503 -2.745193425346304 0  0.307092513690391 -2.651812055231556 0  0.2683745826107009 -2.363146293324415 0  0.5223214285714285 -2.165178571428571 0  0.3925308914031174 2.699891746740618 0  5.607469108596883 -2.699891746740618 0  2.138365140930822 1.917102089073091 0  1.25507379660067 1.953406658386351 0  4.135759889512124 -2.476847355718572 0  0.5330865684534913 -0.8980875812659357 0  2.548249345531056 -1.538893887888457 0  2.67686064875775
[...]
<PointData  Scalars="f_30-2"> 
<DataArray  type="Float64"  Name="f_30-2"  format="ascii">1.0000000000000000e+01  0.0000000000000000e+00  0.0000000000000000e+00  1.0000000000000000e+01  0.0000000000000000e+00  4.6872067776426132e+00  1.0000000000000000e+01  4.6872067776426132e+00  4.6872274797284836e+00  2.2939341408203258e+00  0.0000000000000000e+00  1.0000000000000000e+01  7.2719280043708556e+00  2.2939341408203258e+00  0.0000000000000000e+00  7.2719280043708556e+00  1.0000000000000000e+01  2.6827945009256089e+00  6.8284543206666850e+00  2.2939081790981177e+00  5.9550667399376831e+00  4.3447059550831941e+00  7.3109184597438253e+00  1.7160832495140572e+00  7.9461794416165850e+00  5.7514290291137184e+00  8.5617770648898279e+00  1.6711269474089798e+00  3.4701603259304457e+00  1.4764811226701520e+00  8.2286899692319189e+00  4.3444736168316167e+00  3.2113792511206243e+00  8.5158539589857334e+00  3.1250748908300823e+00  5.4296644604605202e+00  1.2454134274885358e+00  3.8254162493870738e+00  5.6384121872256943e+00  6.6089696171659078e+00  1.0951384388219214e+00  4.9010343401143857e+00  0.0000000000000000e+00  1.1419509722976917e+00  8.6265082559957964e+00  1.0000000000000000e+01  4.4591276868352683e+00  3.0637235152367195e+00  7.2164169157259392e+00  0.0000000000000000e+00  0.0000000000000000e+00  1.0000000000000000e+01  0.0000000000000000e+00  3.4704346367708152e+00  3.4704346367708152e+00  5.9546117367201337e+00  1.0000000000000000e+01  1.1419509722976917e+00  8.6265082559957964e+00  1.0000000000000000e+01  5.9546117367201337e+00  1.0975706486317454e+00  8.6693420118082045e+00  6.6544035018430847e+00  6.9570235655589014e+00  5.4647552712152168e+00  8.7653860826899432e+00  2.5087553610107260e+00  3.6323141519313817e+00  5.8165135940991526e+00  3.9392481852378318e+00  2.5688865492902684e+00  7.9590682937090733e+00  6.5518625774644752e+00  1.7160447415950977e+00  8.0743619421147317e-01  2.1321740532009188e+00  7.6085131558117807e+00  8.7974284582536910e+00  8.8713477160768157e+00  7.3827137402286092e-01  8.2882320007677057e-01  1.9145369085421655e+00  4.9351252443856080e+00  3.3466461939694980e+00  1.8780797870521324e+00  7.9458428911674419e+00  8.9860126105189639e+00  1.7162273456537835e+00  8.4190796187255734e-01  6.4560968098810989e-01  7.6700533254806853e+00  7.5084222286390538e+00  2.5566115461243517e+00  6.9946817336689593e+00  4.0727950882098085e+00  9.2793297750035713e+00  5.3147439146680346e+00  5.3141263558696448e+00  9.2910732098903228e+00  6.6764224423701339e+00  7.6252881165401325e+00  4.7878330998795411e+00  1.9954542024557336e+00  2.3795694942276455e+00  3.6493041426275483e+00  2.8782552908281449e+00  5.7790646755220116e+00  1.0000000000000000e+01  6.2069407131636751e+00  4.0728696140338903e+00  3.7703229782204932e+00  4.5682704977983803e+00  3.0735102051632346e+00  2.6554678335202175e+00  3.8781984124399980e+00  4.1394061738259609e+00  8.0262185754147026e+00  5.1568280127367165e+00  4.8809529005257462e+00  9.2794256501959040e+00  1.0000000000000000e+01  4.8220951278239772e+00  2.3824438049538630e+00  9.3120257961061270e+00  8.0737345065021362e+00  6.0228556977621022e+00  2.7840724132534009e+00  1.0000000000000000e+01  9.1506360223718577e+00  7.0327474457384909e-01  1.6975711390439769e+00  6.1044516085760776e+00  6.8060308289029470e-01  1.3575432366589359e+00  6.6126249125234651e+00  2.8020444145279684e+00  6.1959372841829055e+00  3.6926061741816478e+00  7.0088944800633690e-01  1.1547668109309781e+00  0.0000000000000000e+00  5.8226712018295668e-01  6.9382632884652402e+00  6.0651000078516031e+00  1.0000000000000000e+01  5.8817426833781514e+00  9.2643140717868651e+00  7.2709307774351100e+00  2.0458292262902966e+00  3.1845004541260389e+00  1.3056286809361477e+00  0.0000000000000000e+00  9.1828485979101089e+00  3.3144763821168883e+00  5.2507171511116786e+00  3.1558694232850617e+00  1.1864762257514538e+00  0.0000000000000000e+00  4.2723243774304187e+00  8.2638864604004763e+00  7.2567663521831713e+00  7.9963725249632063e+00  3.1958671675731161e+00  6.5652512300727750e+00  0.0000000000000000e+00  1.0000000000000000e+01  9.3120257961061270e+00  5.7040307373187693e-01  4.6566011611317810e+00  5.1101012616115611e+00  3.8351654697134419e+00  1.3203309525820741e+00  5.8532275897552666e-01  6.6219178299502000e+00  0.0000000000000000e+00  5.7040307373187693e-01  7.3559805647706806e+00  2.6222769272633464e+00  1.6526614873103225e+00  4.2467128347515830e+00  4.9088605150273290e+00  5.3293306205594968e+00  9.2912351653050358e+00  4.6874115125195459e+00  1.0000000000000000e+01  1.0000000000000000e+01  5.3148051013713138e+00  1.0000000000000000e+01  2.8782552908281449e+00  4.0728696140338903e+00  0.0000000000000000e+00  1.7161111986100186e+00  0.0000000000000000e+00  0.0000000000000000e+00  1.7161111986100186e+00  5.3148051013713138e+00  6.6085934166073237e+00  7.9461333486515446e+00  6.6085934166073237e+00  7.9461333486515446e+00  6.3327874292109456e+00  8.6539513922198967e+00  5.9437885189145234e+00  9.2950443459379759e+00  6.3567014734663561e+00  6.8089826414987291e+00  7.5805727172390895e+00  5.4604578244609647e-01  2.2444033874046787e+00  7.4362157468592160e+00  5.2528557767428268e+00  3.7508828438401398e+00  4.3500206665678602e+00  7.7827663804876277e+00  2.2274407622604904e+00  1.9532380667388858e+00  2.0042058754898773e+00  8.5762169441655871e+00  3.2121930105736185e+00  2.8990791342535420e+00  8.6694023741222885e+00  9.3663384375384169e+00  2.4270734889538379e+00  7.4630226856652566e+00  8.6715451114036277e+00  8.5488821100984751e+00  5.4470600715744348e+00  5.4647356532824070e+00  1.2066992200711300e+00  3.0076603999155354e+00  4.3812242954043219e+00  8.1755289559741371e+00  9.3959331382234659e+00  5.9991182260609159e+00  6.6756837887752960e+00  9.3955431849013031e+00  4.7562286146171928e-01  6.7528511134422544e+00  2.5077982697463401e+00  5.6444663336886638e+00  5.6358956400157059e+00  7.5146213121661107e+00  7.0748462085920716e+00  4.1730096720931087e+00  3.6364033242441902e+00  4.3136848670960148e+00  1.6243530919507609e+00  8.0701741876499415e+00  7.1340994910257294e+00  4.3539054343302768e+00  4.6601827367014632e+00  7.8282756510930147e+00  9.4456124376672648e+00  9.5010292291593252e+00  2.5825402930114167e+00  3.8103821307164907e+00  1.4286399443147335e+00  1.7904833824792603e+00  3.6519264080191465e+00  8.2006739764761019e+00  4.7562003742459149e+00  3.1730052670728153e+00  8.8144020582567748e+00  4.4400400982657373e-01  1.2139262973636844e+00  4.1440748997832477e-01  3.8245404437306521e+00  2.7636714173263894e+00  2.9294047448169551e+00  6.2843479995409703e+00  8.8364020621916026e+00  9.4124387287933970e+00  5.4404772566342325e+00  4.6716202386788952e+00  3.6631177523221381e-01  1.2489803175929299e+00  6.1461885332036292e+00  7.1529220747897355e+00  2.1732352018546797e+00  6.7772525180945324e+00  6.1338740788175832e+00  6.6265378036459910e-01  9.4237881147380413e+00  2.1874193948297309e+00  1.7130934639078881e+00  7.1053918950189630e+00  7.4402075914261507e+00  5.9828656500340411e+00  8.9692007681144439e+00  8.4235489095705471e+00  8.5607039978300647e-01  1.3121793539618209e+00  8.3990079470913912e+00  9.8558298894110585e-01  4.9297574630934371e-01  1.3287022284058043e+00  7.0035262847231019e+00  3.8750865698236914e-01  5.2964218515286632e-01  9.6940599550153161e-01  1.2716243153451134e+00  9.4493347847312439e+00  4.5645533787502995e-01  8.0220718481382356e+00  8.0877227292618041e+00  7.9609633495008036e-01  3.2353914021831645e+00  2.2337172371227894e+00  1.4977385973093802e+00  1.6256935588754151e+00  7.7768421673975254e+00  5.6023972438318106e+00  5.6902835731858348e+00  4.1963445867058180e+00  7.0284228625515350e+00  2.1820936158978221e+00  7.5608568839524928e+00  3.2280624046176093e-01  2.7821180635015650e+00  8.7845776069841026e+00  1.7628415984282777e+00  7.3589735591838288e+00  7.2331655483741946e+00  2.9716005792230664e+00  6.1061034378867900e+00  5.0432083260704132e+00  1.5627046321832876e+00  5.1585548088540065e+00  8.7758989606123361e+00  1.3992724211295999e+00  5.2870217176747065e+00  8.0980726710055482e+00  3.2344140795162812e+00  2.4711939889772032e+00  3.1332259579980537e-01  3.8894953863351249e+00  4.2292236050649699e+00  3.6317651705953873e+00  2.5852919110309327e+00  9.3220224810335195e-01  4.7851811463979743e+00  7.4681701515294368e+00  6.7205745601328468e+00  1.5728101588045265e+00  9.6397320543960952e+00  5.6508398201479002e+00  4.9992627890742778e+00  5.1777988467346781e+00  5.6332550112180817e+00  3.9755827849143328e+00  4.0068816596773993e-01  8.2184858771397540e+00  3.0068731118886449e-01  6.2801440160436597e+00  4.3825411878689593e+00  9.6497722244127413e+00  2.7956082539028024e+00  2.0842823917984439e+00  2.0841509163357621e+00  9.6452041522197280e+00  6.2800925092242874e+00  4.2786743389486226e+00  5.0124860491062968e+00  4.3648306749506718e+00  9.6391044015876339e+00  5.8821139412283632e+00  5.3455338851155361e+00  2.0921153556072749e+00  9.6532667855652683e+00  8.2352389454557500e+00  2.9285413912819767e+00  8.3110042535140387e+00  4.7575598959314753e+00  5.6087096561083580e+00  9.2461359989907788e-01  8.5407026269030517e+00  4.9808942215552330e+00  4.0629639912775115e+00  6.4573331250818153e+00  3.4625708919738245e+00  3.4208887196760491e+00  3.0261168861677192e+00  2.6628434965297734e+00  3.3777665766116773e+00  2.7896810994442482e+00  3.5399154943381332e+00  </DataArray> 
</PointData> 
</Piece>
</UnstructuredGrid>
</VTKFile>