<?xml version="1.0"?>
<VTKFile type="UnstructuredGrid"  version="0.1"  >
<UnstructuredGrid>
<Piece  NumberOfPoints="18071" NumberOfCells="35544">
<Points>
<DataArray  type="Float64"  NumberOfComponents="3"  format="ascii">0.9486832980505138 0 0  0.9484724340806782 0.02000104469955538 0  0.9478399359086995 0.03999319812908447 0  0.9467860847054931 0.0599675729710886 0  0.9453113489503684 0.07991528981136745 0  0.9434163842227721 0.09982748108627622 0  0.9411020329108563 0.119695295024715 0  0.938369323837003 0.1395098995830973 0  0.9352194718004709 0.1592624863715497 0  0.931653877037369 0.1789442745695953 0  0.9276741245981944 0.1985465148295827 0  0.9232819836432135 0.2180604931661231 0  0.9184794066559997 0.2374775348298079 0  0.9132685285754754 0.2567890081634844 0  0.9076516658468453 0.2759863284393749 0  0.9016313153918442 0.2950609616753339 0  0.8952101534987531 0.3140044284285474 0  0.8883910346326832 0.3328083075649862 0  0.8811769901666499 0.3514642400029395 0  0.873571227034005 0.3699639324289635 0  0.8655771263028276 0.3882991609845931 0  0.8571982416729006 0.4064617749221782 0  0.8484382978959503 0.4244437002282196 0  0.8393011891198424 0.4422369432125932 0  0.829790977157478 0.459833594062067 0  0.8199118896811526 0.477225830356532 0  0.8096683183431869 0.4944059205463824 0  0.7990648168236594 0.5113662273895018 0  0.7881060988061126 0.5280992113463244 0  0.7767970358821309 0.5445974339314641 0  0.7651426553857218 0.5608535610204205 0  0.753148138158463 0.5768603661098937 0  0.7408188162464108 0.5926107335302548 0  0.7281601705297891 0.6080976616087488 0  0.7151778282865192 0.6233142657820195 0  0.7018775606906669 0.6382537816565753 0  0.6882652802469232 0.652909568015835 0  0.6743470381622587 0.6672751097724156 0  0.6601290216559174 0.6813440208643511 0  0.6456175512089487 0.6951100470939552 0  0.6308190777544996 0.7085670689080622 0  0.6157401798101144 0.7217091041184169 0  0.6003875605533189 0.734530310560997 0  0.584768044841788 0.7470249886930909 0  0.5688885761794213 0.7591875841269735 0  0.5527562136296766 0.7710126900990562 0  0.5363781286775311 0.7824950498734097 0  0.5197616020414676 0.7936295590785962 0  0.5029140204369025 0.8044112679767674 0  0.4858428732924924 0.8148353836640227 0  0.4685557494207815 0.8248972722010478 0  0.4510603336446699 0.8345924606730875 0  0.4333644033811983 0.8439166391783361 0  0.4154758251841748 0.8528656627438631 0  0.3974025512471733 0.8614355531682203 0  0.379152615868464 0.8696225007899122 0  0.3607341318794444 0.8774228661809444 0  0.342155287038158 0.8848331817646961 0  0.3234243403895067 0.8918501533573969 0  0.3045496185937731 0.898470661632525 0  0.2855395122250832 0.904691763507473 0  0.2664024720414594 0.9105106934518669 0  0.2471470052281184 0.915924864716955 0  0.2277816716156831 0.9209318704855235 0  0.2083150798749952 0.925529484941822 0  0.1887558836902123 0.9297156642610294 0  0.1691127779118977 0.9334885475178156 0  0.1493944946918097 0.9368464575135985 0  0.1296097996011066 0.9397879015221259 0  0.1097674877336993 0.9423115719530522 0  0.08987637979647611 0.9444163469332154 0  0.06994531818814397 0.9461012908053551 0  0.04998316306842656 0.9473656545440494 0  0.02999878841936526 0.9482088760886865 0  0.01000107810047723 0.9486305805933245 0  -0.01000107810047732 0.9486305805933245 0  -0.02999878841936514 0.9482088760886865 0  -0.04998316306842644 0.9473656545440494 0  -0.06994531818814406 0.9461012908053551 0  -0.08987637979647599 0.9444163469332155 0  -0.1097674877336992 0.9423115719530522 0  -0.1296097996011065 0.9397879015221259 0  -0.1493944946918096 0.9368464575135985 0  -0.1691127779118979 0.9334885475178156 0  -0.1887558836902122 0.9297156642610294 0  -0.2083150798749951 0.925529484941822 0  -0.227781671615683 0.9209318704855235 0  -0.247147005228118 0.9159248647169551 0  -0.2664024720414591 0.9105106934518669 0  -0.2855395122250831 0.904691763507473 0  -0.3045496185937729 0.8984706616325251 0  -0.3234243403895066 0.8918501533573969 0  -0.3421552870381577 0.8848331817646962 0  -0.3607341318794441 0.8774228661809446 0  -0.3791526158684641 0.8696225007899122 0  -0.3974025512471734 0.8614355531682203 0  -0.4154758251841746 0.8528656627438632 0  -0.4333644033811984 0.8439166391783361 0  -0.4510603336446696 0.8345924606730876 0  -0.4685557494207815 0.8248972722010479 0  -0.4858428732924923 0.8148353836640227 0  -0.5029140204369026 0.8044112679767673 0  -0.5197616020414676 0.7936295590785962 0  -0.536378128677531 0.7824950498734098 0  -0.5527562136296768 0.7710126900990562 0  -0.5688885761794211 0.7591875841269737 0  -0.5847680448417879 0.747024988693091 0  -0.6003875605533187 0.7345303105609973 0  -0.6157401798101142 0.721709104118417 0  -0.6308190777544995 0.7085670689080623 0  -0.6456175512089487 0.6951100470939551 0  -0.6601290216559171 0.6813440208643513 0  -0.6743470381622587 0.6672751097724156 0  -0.688265280246923 0.6529095680158352 0  -0.7018775606906668 0.6382537816565753 0  -0.7151778282865192 0.6233142657820195 0  -0.7281601705297891 0.6080976616087488 0  -0.7408188162464107 0.592610733530255 0  -0.753148138158463 0.5768603661098938 0  -0.7651426553857216 0.5608535610204208 0  -0.7767970358821308 0.5445974339314642 0  -0.7881060988061125 0.5280992113463245 0  -0.7990648168236594 0.5113662273895018 0  -0.8096683183431868 0.4944059205463825 0  -0.8199118896811526 0.477225830356532 0  -0.8297909771574777 0.4598335940620675 0  -0.8393011891198424 0.4422369432125932 0  -0.8484382978959502 0.4244437002282198 0  -0.8571982416729006 0.4064617749221782 0  -0.8655771263028273 0.3882991609845933 0  -0.873571227034005 0.3699639324289636 0  -0.8811769901666499 0.3514642400029395 0  -0.8883910346326833 0.332808307564986 0  -0.8952101534987531 0.3140044284285475 0  -0.9016313153918442 0.295060961675334 0  -0.9076516658468452 0.2759863284393752 0  -0.9132685285754755 0.2567890081634842 0  -0.9184794066559997 0.237477534829808 0  -0.9232819836432135 0.218060493166123 0  -0.9276741245981943 0.1985465148295829 0  -0.931653877037369 0.1789442745695954 0  -0.9352194718004709 0.15926248637155 0  -0.938369323837003 0.1395098995830971 0  -0.9411020329108563 0.1196952950247151 0  -0.9434163842227721 0.09982748108627618 0  -0.9453113489503684 0.07991528981136768 0  -0.9467860847054931 0.05996757297108869 0  -0.9478399359086995 0.03999319812908442 0  -0.9484724340806782 0.02000104469955522 0  -0.9486832980505138 1.161801964362116e-16 0  -0.9484724340806782 -0.02000104469955541 0  -0.9478399359086995 -0.0399931981290842 0  -0.9467860847054931 -0.05996757297108847 0  -0.9453113489503684 -0.07991528981136745 0  -0.9434163842227721 -0.09982748108627594 0  -0.9411020329108563 -0.1196952950247148 0  -0.938369323837003 -0.1395098995830973 0  -0.935219471800471 -0.1592624863715494 0  -0.9316538770373691 -0.1789442745695952 0  -0.9276741245981944 -0.1985465148295827 0  -0.9232819836432136 -0.2180604931661228 0  -0.9184794066559998 -0.2374775348298077 0  -0.9132685285754755 -0.256789008163484 0  -0.9076516658468454 -0.2759863284393745 0  -0.9016313153918442 -0.2950609616753337 0  -0.8952101534987533 -0.3140044284285469 0  -0.8883910346326832 -0.3328083075649862 0  -0.8811769901666497 -0.3514642400029397 0  -0.8735712270340051 -0.3699639324289634 0  -0.8655771263028275 -0.3882991609845931 0  -0.8571982416729007 -0.406461774922178 0  -0.8484382978959503 -0.4244437002282196 0  -0.8393011891198425 -0.4422369432125929 0  -0.8297909771574781 -0.4598335940620669 0  -0.8199118896811529 -0.4772258303565314 0  -0.8096683183431871 -0.494405920546382 0  -0.7990648168236597 -0.5113662273895012 0  -0.7881060988061124 -0.5280992113463246 0  -0.7767970358821309 -0.544597433931464 0  -0.7651426553857217 -0.5608535610204206 0  -0.7531481381584632 -0.5768603661098936 0  -0.7408188162464108 -0.5926107335302547 0  -0.7281601705297893 -0.6080976616087486 0  -0.7151778282865193 -0.6233142657820193 0  -0.7018775606906672 -0.638253781656575 0  -0.6882652802469235 -0.6529095680158347 0  -0.674347038162259 -0.6672751097724151 0  -0.660129021655917 -0.6813440208643514 0  -0.6456175512089486 -0.6951100470939552 0  -0.6308190777544994 -0.7085670689080624 0  -0.6157401798101141 -0.7217091041184172 0  -0.6003875605533191 -0.7345303105609969 0  -0.5847680448417881 -0.7470249886930909 0  -0.5688885761794213 -0.7591875841269736 0  -0.5527562136296765 -0.7710126900990563 0  -0.5363781286775317 -0.7824950498734093 0  -0.519761602041468 -0.7936295590785959 0  -0.5029140204369028 -0.8044112679767672 0  -0.4858428732924925 -0.8148353836640226 0  -0.4685557494207817 -0.8248972722010478 0  -0.4510603336446699 -0.8345924606730875 0  -0.4333644033811982 -0.8439166391783361 0  -0.4154758251841745 -0.8528656627438633 0  -0.3974025512471736 -0.8614355531682203 0  -0.3791526158684643 -0.8696225007899121 0  -0.3607341318794445 -0.8774228661809444 0  -0.342155287038158 -0.8848331817646962 0  -0.3234243403895075 -0.8918501533573966 0  -0.3045496185937727 -0.8984706616325251 0  -0.2855395122250827 -0.9046917635074732 0  -0.2664024720414597 -0.9105106934518667 0  -0.2471470052281185 -0.915924864716955 0  -0.2277816716156832 -0.9209318704855235 0  -0.2083150798749951 -0.925529484941822 0  -0.1887558836902128 -0.9297156642610293 0  -0.1691127779118983 -0.9334885475178155 0  -0.14939449469181 -0.9368464575135985 0  -0.1296097996011069 -0.9397879015221258 0  -0.1097674877336994 -0.942311571953052 0  -0.08987637979647602 -0.9444163469332154 0  -0.06994531818814387 -0.9461012908053551 0  -0.04998316306842625 -0.9473656545440494 0  -0.02999878841936558 -0.9482088760886865 0  -0.01000107810047755 -0.9486305805933245 0  0.0100010781004772 -0.9486305805933245 0  0.02999878841936524 -0.9482088760886865 0  0.04998316306842591 -0.9473656545440494 0  0.06994531818814352 -0.9461012908053552 0  0.08987637979647567 -0.9444163469332155 0  0.1097674877336991 -0.9423115719530522 0  0.1296097996011066 -0.9397879015221259 0  0.1493944946918097 -0.9368464575135985 0  0.1691127779118979 -0.9334885475178156 0  0.1887558836902125 -0.929715
[...]
<PointData  Scalars="f_29-2"> 
<DataArray  type="Float64"  Name="f_29-2"  format="ascii">0.0000000000000000e+00  0.0000000000000000e+00  0.0000000000000000e+00  0.0000000000000000e+00  0.0000000000000000e+00  0.0000000000000000e+00  0.0000000000000000e+00  0.0000000000000000e+00  0.0000000000000000e+00  0.0000000000000000e+00  0.0000000000000000e+00  0.0000000000000000e+00  0.0000000000000000e+00  0.0000000000000000e+00  0.0000000000000000e+00  0.0000000000000000e+00  0.0000000000000000e+00  0.0000000000000000e+00  0.0000000000000000e+00  0.0000000000000000e+00  0.0000000000000000e+00  0.0000000000000000e+00  0.0000000000000000e+00  0.0000000000000000e+00  0.0000000000000000e+00  0.0000000000000000e+00  0.0000000000000000e+00  0.0000000000000000e+00  0.0000000000000000e+00  0.0000000000000000e+00  0.0000000000000000e+00  0.0000000000000000e+00  0.0000000000000000e+00  0.0000000000000000e+00  0.0000000000000000e+00  0.0000000000000000e+00  0.0000000000000000e+00  0.0000000000000000e+00  0.0000000000000000e+00  0.0000000000000000e+00  0.0000000000000000e+00  0.0000000000000000e+00  0.0000000000000000e+00  0.0000000000000000e+00  0.0000000000000000e+00  0.0000000000000000e+00  0.0000000000000000e+00  0.0000000000000000e+00  0.0000000000000000e+00  0.0000000000000000e+00  0.0000000000000000e+00  0.0000000000000000e+00  0.0000000000000000e+00  0.0000000000000000e+00  0.0000000000000000e+00  0.0000000000000000e+00  0.0000000000000000e+00  0.0000000000000000e+00  0.0000000000000000e+00  0.0000000000000000e+00  0.0000000000000000e+00  0.0000000000000000e+00  0.0000000000000000e+00  0.0000000000000000e+00  0.0000000000000000e+00  0.0000000000000000e+00  0.0000000000000000e+00  0.0000000000000000e+00  0.0000000000000000e+00  0.0000000000000000e+00  0.0000000000000000e+00  0.0000000000000000e+00  0.0000000000000000e+00  0.0000000000000000e+00  0.0000000000000000e+00  0.0000000000000000e+00  0.0000000000000000e+00  0.0000000000000000e+00  0.0000000000000000e+00  0.0000000000000000e+00  0.0000000000000000e+00  0.0000000000000000e+00  0.0000000000000000e+00  0.0000000000000000e+00  0.0000000000000000e+00  0.0000000000000000e+00  0.0000000000000000e+00  0.0000000000000000e+00  0.0000000000000000e+00  0.0000000000000000e+00  0.0000000000000000e+00  0.0000000000000000e+00  0.0000000000000000e+00  0.0000000000000000e+00  0.0000000000000000e+00  0.0000000000000000e+00  0.0000000000000000e+00  0.0000000000000000e+00  0.0000000000000000e+00  0.0000000000000000e+00  0.0000000000000000e+00  0.0000000000000000e+00  0.0000000000000000e+00  0.0000000000000000e+00  0.0000000000000000e+00  0.0000000000000000e+00  0.0000000000000000e+00  0.0000000000000000e+00  0.0000000000000000e+00  0.0000000000000000e+00  0.0000000000000000e+00  0.0000000000000000e+00  0.0000000000000000e+00  0.0000000000000000e+00  0.0000000000000000e+00  0.0000000000000000e+00  0.0000000000000000e+00  0.0000000000000000e+00  0.0000000000000000e+00  0.0000000000000000e+00  0.0000000000000000e+00  0.0000000000000000e+00  0.0000000000000000e+00  0.0000000000000000e+00  0.0000000000000000e+00  0.0000000000000000e+00  0.0000000000000000e+00  0.0000000000000000e+00  0.0000000000000000e+00  0.0000000000000000e+00  0.0000000000000000e+00  0.0000000000000000e+00  0.0000000000000000e+00  0.0000000000000000e+00  0.0000000000000000e+00  0.0000000000000000e+00  0.0000000000000000e+00  0.0000000000000000e+00  0.0000000000000000e+00  0.0000000000000000e+00  0.0000000000000000e+00  0.0000000000000000e+00  0.0000000000000000e+00  0.0000000000000000e+00  0.0000000000000000e+00  0.0000000000000000e+00  0.0000000000000000e+00  0.0000000000000000e+00  0.0000000000000000e+00  0.0000000000000000e+00  0.0000000000000000e+00  0.0000000000000000e+00  0.0000000000000000e+00  0.0000000000000000e+00  0.0000000000000000e+00  0.0000000000000000e+00  0.0000000000000000e+00  0.0000000000000000e+00  0.0000000000000000e+00  0.0000000000000000e+00  0.0000000000000000e+00  0.0000000000000000e+00  0.0000000000000000e+00  0.0000000000000000e+00  0.0000000000000000e+00  0.0000000000000000e+00  0.0000000000000000e+00  0.0000000000000000e+00  0.0000000000000000e+00  0.0000000000000000e+00  0.0000000000000000e+00  0.0000000000000000e+00  0.0000000000000000e+00  0.0000000000000000e+00  0.0000000000000000e+00  0.0000000000000000e+00  0.0000000000000000e+00  0.0000000000000000e+00  0.0000000000000000e+00  0.0000000000000000e+00  0.0000000000000000e+00  0.0000000000000000e+00  0.0000000000000000e+00  0.0000000000000000e+00  0.0000000000000000e+00  0.0000000000000000e+00  0.0000000000000000e+00  0.0000000000000000e+00  0.0000000000000000e+00  0.0000000000000000e+00  0.0000000000000000e+00  0.0000000000000000e+00  0.0000000000000000e+00  0.0000000000000000e+00  0.0000000000000000e+00  0.0000000000000000e+00  0.0000000000000000e+00  0.0000000000000000e+00  0.0000000000000000e+00  0.0000000000000000e+00  0.0000000000000000e+00  0.0000000000000000e+00  0.0000000000000000e+00  0.0000000000000000e+00  0.0000000000000000e+00  0.0000000000000000e+00  0.0000000000000000e+00  0.0000000000000000e+00  0.0000000000000000e+00  0.0000000000000000e+00  0.0000000000000000e+00  0.0000000000000000e+00  0.0000000000000000e+00  0.0000000000000000e+00  0.0000000000000000e+00  0.0000000000000000e+00  0.0000000000000000e+00  0.0000000000000000e+00  0.0000000000000000e+00  0.0000000000000000e+00  0.0000000000000000e+00  0.0000000000000000e+00  0.0000000000000000e+00  0.0000000000000000e+00  0.0000000000000000e+00  0.0000000000000000e+00  0.0000000000000000e+00  0.0000000000000000e+00  0.0000000000000000e+00  0.0000000000000000e+00  0.0000000000000000e+00  0.0000000000000000e+00  0.0000000000000000e+00  0.0000000000000000e+00  0.0000000000000000e+00  0.0000000000000000e+00  0.0000000000000000e+00  0.0000000000000000e+00  0.0000000000000000e+00  0.0000000000000000e+00  0.0000000000000000e+00  0.0000000000000000e+00  0.0000000000000000e+00  0.0000000000000000e+00  0.0000000000000000e+00  0.0000000000000000e+00  0.0000000000000000e+00  0.0000000000000000e+00  0.0000000000000000e+00  0.0000000000000000e+00  0.0000000000000000e+00  0.0000000000000000e+00  0.0000000000000000e+00  0.0000000000000000e+00  0.0000000000000000e+00  0.0000000000000000e+00  0.0000000000000000e+00  0.0000000000000000e+00  0.0000000000000000e+00  0.0000000000000000e+00  0.0000000000000000e+00  0.0000000000000000e+00  0.0000000000000000e+00  0.0000000000000000e+00  0.0000000000000000e+00  0.0000000000000000e+00  0.0000000000000000e+00  0.0000000000000000e+00  0.0000000000000000e+00  0.0000000000000000e+00  0.0000000000000000e+00  0.0000000000000000e+00  0.0000000000000000e+00  0.0000000000000000e+00  0.0000000000000000e+00  0.0000000000000000e+00  0.0000000000000000e+00  0.0000000000000000e+00  0.0000000000000000e+00  0.0000000000000000e+00  0.0000000000000000e+00  0.0000000000000000e+00  0.0000000000000000e+00  0.0000000000000000e+00  0.0000000000000000e+00  0.0000000000000000e+00  0.0000000000000000e+00  0.0000000000000000e+00  0.0000000000000000e+00  0.0000000000000000e+00  0.0000000000000000e+00  0.0000000000000000e+00  0.0000000000000000e+00  0.0000000000000000e+00  0.0000000000000000e+00  0.0000000000000000e+00  0.0000000000000000e+00  0.0000000000000000e+00  1.2095017672524280e+00  9.1037784514088116e-01  9.1031018082465021e-01  9.1032741557702812e-01  9.1035480975409488e-01  8.9015708071833766e-01  8.5761959616922068e-01  7.3094595902207160e-01  7.3087423765052173e-01  6.6957804452583924e-01  6.6654429187488839e-01  6.4663909612879689e-01  6.3837773975716161e-01  1.0965754250534123e+00  1.0965692671688554e+00  1.1086361011418366e+00  5.6812911133132848e-01  5.6809309569759947e-01  5.7216499961790968e-01  5.6810380837498264e-01  1.1098784206516912e+00  1.0895197911311789e+00  5.4525229420273025e-01  5.4622528660059699e-01  1.0546252679093666e+00  5.3385288496806671e-01  5.1684578284485627e-01  5.5788765227494819e-01  5.7065550197164394e-01  5.1456649537384636e-01  9.1698326746902714e-01  6.4582368919188771e-01  4.3320860595259986e-01  4.3321519745085513e-01  4.3694906885705986e-01  4.3321836391290663e-01  9.2785840399150532e-01  8.3739937034489076e-01  8.3731825482272515e-01  9.3181489032099762e-01  8.4312068360344328e-01  1.1623393250539789e+00  1.1667772731894643e+00  9.1082400541689212e-01  4.0196798242371301e-01  3.9302346590415776e-01  4.0055734512760705e-01  3.9396660771154740e-01  6.6172257238643895e-01  3.9080961945623460e-01  3.9114758023558832e-01  3.7211579644157539e-01  3.8053493446886133e-01  8.5585193111384827e-01  7.8414114558889580e-01  8.8569276302622735e-01  3.7054002653327534e-01  3.7018000862616035e-01  1.0846073548872037e+00  9.4558861438882991e-01  1.1780104624095280e+00  1.1725666584277761e+00  1.1577352891669759e+00  7.5623800157723642e-01  1.0650386767832170e+00  3.8066685125679800e-01  1.0141124574271216e+00  1.0578865260450951e+00  3.6705397379011617e-01  3.4949965099357816e-01  7.3187326350939330e-01  8.1982956421086040e-01  3.4233763894321223e-01  1.0577622832203875e+00  1.1810655674373474e+00  1.0099163199286607e+00  9.9948682128855559e-01  1.0302872233106950e+00  1.0046749251468619e+00  7.6457712329719452e-01  3.2691169705253387e-01  3.2392362836583777e-01  3.2385400535695180e-01  6.7350887613906008e-01  3.2455539848421638e-01  3.4581687229719904e-01  7.9124049053012246e-01  6.9682744725136092e-01  3.1398274541122984e-01  9.9405630392347544e-01  7.5532629413262764e-01  7.9646474032755232e-01  6.5909061141800840e-01  3.0557303622015575e-01  9.3585142607107386e-01  6.6008368929236794e-01  6.6004847362065522e-01  3.0353716003181702e-01  9.9775049119170589e-01  3.0442354881293837e-01  7.1265778421409187e-01  3.0475246216741880e-01  6.2977478445870716e-01  7.5919012055314317e-01  7.3281404809816519e-01  1.1153131384498194e+00  1.0233219891391745e+00  1.0038417520915723e+00  2.9181694636771810e-01  6.0382166919441915e-01  2.7949818665914838e-01  9.8751521323813185e-01  7.0218816823341657e-01  7.8499904420234590e-01  3.0558015542032319e-01  6.0926061890839167e-01  1.1683833997848661e+00  7.8981723582984820e-01  5.3518567817906615e-01  6.1451617230507793e-01  3.2188226071065845e-01  3.0046493502684885e-01  5.3312848780694422e-01  8.7881880239556698e-01  1.1092199207994988e+00  7.2881529479126506e-01  5.8087309274866583e-01  1.1027333567365885e+00  2.7532752236817354e-01  5.8439111873038174e-01  3.6668114228383786e-01  2.8677823325135265e-01  5.5304492568059793e-01  8.8858549687927157e-01  2.7731808809659914e-01  2.8024517680906019e-01  2.6686070154408409e-01  2.6587002030407858e-01  6.8906207574340139e-01  1.1664303291446094e+00  4.4439301983492141e-01  9.6694336631557798e-01  5.7262876014142960e-01  1.0934943820653140e+00  4.8745431484167367e-01  1.1961878024151598e+00  5.4334159907768353e-01  1.0322826873751580e+00  2.4133450710561336e-01  3.6633265246240337e-01  2.6581443476389177e-01  8.6527120143785674e-01  7.8749124644731294e-01  1.0254537722397372e+00  7.9979049381162515e-01  2.4040398342681793e-01  2.4200933856720752e-01  2.3550008228289143e-01  2.3541263649559033e-01  4.8838798757550383e-01  7.5747932273422391e-01  1.1274850928042051e+00  5.0475919081861187e-01  4.7025534308991435e-01  6.6945605747770587e-01  8.0022153126853846e-01  5.6140406294412670e-01  8.4125098941866983e-01  9.5340849615338308e-01  1.1973634536789752e+00  1.1302960920763310e+00  5.1457360661269258e-01  7.9042333299084311e-01  2.4700205191733388e-01  1.1030660335955280e+00  1.0282053893425995e+00  9.1892633845322391e-01  5.1308138028056194e-01  1.0087423058456004e+00  5.3858147786106325e-01  8.4324317775313717e-01  9.2240924004685898e-01  5.0235601150195097e-01  8.1454111877049984e-01  4.7338985283172308e-01  5.3764775098457485e-01  1.1275845331683521e+00  1.1976025972807354e+00  1.1338198493693754e+00  2.2090828964245998e-01  2.2977048027001543e-01  8.9237423694318452e-01  2.2225577070777047e-01  2.4020923664769014e-01  8.7758412753761117e-01  7.9127441170513824e-01  7.1627321123951637e-01  7.9123571643462909e-01  7.0578262915084922e-01  9.1696360155162759e-01  7.1577921670039579e-01  5.5006291996734014e-01  2.2316122717463660e-01  2.1408721687453985e-01  2.1442126563827871e-01  4.8540369535237016e-01  8.1848387980934201e-01  4.8690498912878694e-01  4.6873524461877231e-01  2.1621925441666948e-01  2.1491805397482600e-01  9.4146424921173300e-01  1.0253754846172023e+00  2.1448410271938406e-01  1.0079831250628233e+00  1.0026667210075200e+00  1.0826197785928737e+00  2.0684601416070234e-01  9.0445433820095622e-01  2.1186143697352341e-01  1.2001672891751676e+00  6.4798964271908888e-01  2.3075416429622844e-01  2.1901941274866527e-01  2.0723501464368727e-01  9.8674464842486342e-01  2.0359329782319388e-01  2.6817210748265163e-01  4.1248239949057869e-01  2.2562818905947593e-01  2.0222703055499811e-01  5.4502795610531729e-01  4.4148699079107195e-01  4.5680270232562081e-01  4.3725474701563793e-01  2.1178217675163111e-01  5.8765269261767938e-01  2.2003679984557731e-01  4.0779736875013373e-01  1.9827117952695400e-01  1.1411924276486038e+00  1.1602338470620099e+00  4.5131700058498980e-01  4.7234833074495491e-01  7.7092115476221623e-01  1.1609792963908201e+00  5.6038086639774320e-01  9.5218892345471584e-01  9.0956872383681786e-01  1.1382472076619214e+00  4.9834115823614122e-01  7.3515418844889358e-01  6.7566396737712608e-01  5.1203720812919307e-01  1.9848660200978271e-01  2.0822149747422614e-01  1.9830260070412070e-01  2.4645126608651827e-01  9.1335272296574355e-01  9.1660059800413884e-01  7.0457435992198081e-01  2.0295087522447430e-01  6.9736263521759345e-01  1.0194588884990525e+00  1.9850960854015179e-01  8.0369811755680109e-01  1.0612737441196411e+00  1.0564961656657623e+00  1.1798444477566810e+00  1.1143088575010915e+00  6.9823410558194443e-01  1.2016520006226177e+00  2.0240431608577014e-01  1.0700898773094103e+00  8.4611058460966015e-01  9.2458121222280931e-01  7.7622714795321046e-01  7.3047147968339476e-01  7.4793825807061498e-01  2.0387688220808073e-01  1.0983434403259202e+00  5.2608305385759824e-01  9.4015887699030909e-01  6.4357029309643199e-01  8.0275207987461361e-01  9.9813908633135728e-01  1.0001064795584607e+00  1.0701878042681727e+00  2.4254725243168587e-01  1.0556732104586608e+00  5.8629220782389491e-01  1.1206412645607915e+00  6.9527081417692971e-01  6.3511423680685031e-01  1.1977109967586654e+00  9.8604511406453721e-01  4.6928524200299254e-01  6.7192513703996215e-01  5.3512960863686410e-01  1.1439313521334369e+00  4.1752667499879154e-01  8.6061804894882776e-01  5.7377554367730477e-01  1.8510809344171700e-01  1.8134094136976342e-01  1.1715394140207844e+00  6.3328427047771074e-01  1.9250636194443357e-01  4.2644864569239838e-01  4.6175372040556573e-01  1.9131991043141469e-01  4.2439956550600527e-01  1.8555734715325387e-01  1.8879174657004749e-01  1.0643613784708532e+00  1.7997576043733313e-01  6.2586192792127837e-01  6.8403149120492179e-01  6.9256751344533851e-01  5.2290417886541374e-01  1.7830978999254082e-01  1.0037245346604118e+00  9.9918765570707901e-01  1.0751835887626155e+00  9.0542188275377700e-01  3.9010524360035009e-01  9.3093886728948483e-01  7.4014959357641186e-01  8.3548457229831996e-01  1.1886651148123393e+00  1.7567571888701106e-01  1.7621271532053440e-01  4.4379808400462767e-01  9.7524943317464774e-01  1.0625060618165802e+00  6.6884179844777747e-01  9.8450837437686745e-01  9.6605819233406243e-01  5.9162392948484555e-01  8.2132464080177081e-01  9.3201916917091632e-01  6.9809125133513905e-01  7.9942443747767256e-01  6.7948258854946941e-01  8.3582785387866165e-01  3.7180680837995822e-01  4.4975414495527971e-01  8.7848780108501368e-01  6.4582688396942178e-01  1.1405240105155041e+00  1.8001422636577200e-01  8.4765584963016860e-01  8.5299247790777943e-01  4.8290809173927624e-01  4.1505843218400185e-01  3.8660794275582039e-01  3.7381531004232899e-01  1.1454419185770888e+00  3.6270273124748759e-01  8.3367174103926034e-01  9.6162856370772698e-01  5.7626692959122372e-01  6.1733721900809080e-01  1.0759294898751406e+00  3.7938581646164032e-01  3.7281937738265214e-01  6.5130524798832068e-01  6.2900038657945045e-01  8.6462896642163833e-01  3.8023023484161789e-01  1.1838567284922283e+00  7.4010824428269006e-01  9.8756199173155090e-01  1.0676967224334786e+00  1.6305252323161210e-01  3.7575825146620323e-01  8.2144266977899161e-01  1.6591977218910292e-01  8.0795082753193503e-01  2.5614754770432091e-01  1.6637122709541821e-01  1.6183432208933729e-01  1.6594841351165052e-01  7.4682299168979849e-01  1.2037760500516910e+00  8.1764952874687280e-01  1.6676527088195611e-01  1.5936474985137791e-01  9.3205846984427998e-01  5.9596813959873940e-01  1.1340767428328311e+00  6.6297175049137036e-01  6.1801566357079973e-01  1.6299874823837135e-01  6.6389568677526123e-01  9.1838955686655643e-01  1.0580408837995201e+00  1.6281372040130412e-01  3.9863801770719770e-01  6.1562434989013159e-01  5.4983742317008788e-01  4.2717750186042897e-01  3.5250250314444370e-01  1.6965303558874817e-01  3.6632031838879309e-01  4.0936321133160258e-01  4.3133191517104263e-01  3.5972568885025219e-01  9.5809854342940637e-01  3.6083047184322886e-01  1.1062032067267926e+00  6.9817960498728304e-01  7.4634809350183906e-01  5.4755751263046482e-01  5.0745180781019017e-01  2.0999834222107289e-01  9.6719379965452246e-01  6.7794218184829724e-01  4.1966676486788784e-01  3.8923438984774217e-01  5.8615879239004798e-01  1.1872706618904409e+00  6.9081969741189486e-01  4.2666994750286580e-01  5.7922505758895504e-01  1.0214610346366031e+00  1.6210586389535575e-01  1.5444694286064972e-01  7.5508652435772927e-01  8.2459605602396835e-01  7.7198542468568221e-01  1.5812799565039470e-01  1.0479315990832723e+00  1.1489319373416129e+00  7.6014240717136128e-01  5.4385319833482315e-01  3.6941430820084326e-01  1.0988245600156783e+00  1.1543907450796782e+00  5.2328995246707977e-01  8.9764109128841940e-01  3.2812261907647639e-01  1.5703613488891671e-01  8.0413745808073112e-01  1.4950714488821998e-01  1.0703145211526155e+00  6.6090127959892075e-01  9.5362949596188928e-01  1.0209095670030572e+00  9.4488271664063073e-01  1.0556579375137909e+00  7.6115653326083488e-01  1.5193166193052049e-01  1.5381416259357997e-01  1.5671304359825503e-01  4.4455821483511981e-01  3.7503063610030429e-01  7.0446538702137573e-01  4.9238844343935395e-01  3.4691789281872659e-01  1.5372571833898552e-01  1.1617352032932615e+00  4.9639465530797267e-01  5.5404247150551278e-01  1.1276493865718302e+00  4.4860129095761342e-01  8.8832546570924109e-01  1.0488742136963993e+00  1.4575809357155842e-01  9.7013965967187343e-01  4.5181503534198930e-01  1.1355837658891517e+00  1.1805634173639610e+00  3.2906527933360824e-01  3.4873107858178737e-01  1.5939878214321401e-01  9.3101354881447473e-01  1.4240764054979732e-01  8.0253029390074393e-01  1.0398558040588299e+00  9.5389495506874344e-01  8.6473189567264563e-01  6.2173645324993121e-01  3.2169831901281853e-01  5.7192757716893372e-01  1.4900113759603845e-01  6.1763765718642671e-01  7.2203276474747802e-01  8.3939439115265690e-01  8.5605731720134004e-01  7.6726787473873947e-01  5.0285995465917588e-01  5.7822200929248380e-01  6.3761576388090857e-01  3.1948677434790107e-01  1.0704680978596266e+00  1.4057324259084877e-01  1.1133653058240549e+00  8.6467650970576360e-01  7.1094087078290957e-01  7.5162609034836791e-01  8.0104991334605702e-01  8.5736863263673990e-01  6.3110015889744508e-01  1.0553120122905042e+00  1.1336658374208246e+00  5.2316596304753316e-01  1.4392665009388531e-01  9.5099023574980324e-01  3.3058499982898193e-01  8.6966945061611167e-01  1.0703687066203458e+00  5.2642362226638739e-01  1.1054658857741315e+00  1.1622414222482045e+00  6.4229417630484253e-01  1.0080817428071411e+00  5.9594439671932231e-01  6.3723826373297188e-01  5.0908293374429037e-01  7.0397016400446122e-01  6.2745085227700814e-01  9.1374338382041176e-01  1.4652568350129566e-01  9.6831886397662881e-01  3.5864363787961201e-01  5.9301396765082892e-01  8.2994432763864834e-01  1.4648820052430334e-01  3.3888445505454090e-01  1.1593372921080771e+00  4.2303754342940