<?xml version="1.0"?>
<VTKFile type="UnstructuredGrid"  version="0.1"  >
<UnstructuredGrid>
<Piece  NumberOfPoints="18071" NumberOfCells="35544">
<Points>
<DataArray  type="Float64"  NumberOfComponents="3"  format="ascii">0.9486832980505138 0 0  0.9484724340806782 0.02000104469955538 0  0.9478399359086995 0.03999319812908447 0  0.9467860847054931 0.0599675729710886 0  0.9453113489503684 0.07991528981136745 0  0.9434163842227721 0.09982748108627622 0  0.9411020329108563 0.119695295024715 0  0.938369323837003 0.1395098995830973 0  0.9352194718004709 0.1592624863715497 0  0.931653877037369 0.1789442745695953 0  0.9276741245981944 0.1985465148295827 0  0.9232819836432135 0.2180604931661231 0  0.9184794066559997 0.2374775348298079 0  0.9132685285754754 0.2567890081634844 0  0.9076516658468453 0.2759863284393749 0  0.9016313153918442 0.2950609616753339 0  0.8952101534987531 0.3140044284285474 0  0.8883910346326832 0.3328083075649862 0  0.8811769901666499 0.3514642400029395 0  0.873571227034005 0.3699639324289635 0  0.8655771263028276 0.3882991609845931 0  0.8571982416729006 0.4064617749221782 0  0.8484382978959503 0.4244437002282196 0  0.8393011891198424 0.4422369432125932 0  0.829790977157478 0.459833594062067 0  0.8199118896811526 0.477225830356532 0  0.8096683183431869 0.4944059205463824 0  0.7990648168236594 0.5113662273895018 0  0.7881060988061126 0.5280992113463244 0  0.7767970358821309 0.5445974339314641 0  0.7651426553857218 0.5608535610204205 0  0.753148138158463 0.5768603661098937 0  0.7408188162464108 0.5926107335302548 0  0.7281601705297891 0.6080976616087488 0  0.7151778282865192 0.6233142657820195 0  0.7018775606906669 0.6382537816565753 0  0.6882652802469232 0.652909568015835 0  0.6743470381622587 0.6672751097724156 0  0.6601290216559174 0.6813440208643511 0  0.6456175512089487 0.6951100470939552 0  0.6308190777544996 0.7085670689080622 0  0.6157401798101144 0.7217091041184169 0  0.6003875605533189 0.734530310560997 0  0.584768044841788 0.7470249886930909 0  0.5688885761794213 0.7591875841269735 0  0.5527562136296766 0.7710126900990562 0  0.5363781286775311 0.7824950498734097 0  0.5197616020414676 0.7936295590785962 0  0.5029140204369025 0.8044112679767674 0  0.4858428732924924 0.8148353836640227 0  0.4685557494207815 0.8248972722010478 0  0.4510603336446699 0.8345924606730875 0  0.4333644033811983 0.8439166391783361 0  0.4154758251841748 0.8528656627438631 0  0.3974025512471733 0.8614355531682203 0  0.379152615868464 0.8696225007899122 0  0.3607341318794444 0.8774228661809444 0  0.342155287038158 0.8848331817646961 0  0.3234243403895067 0.8918501533573969 0  0.3045496185937731 0.898470661632525 0  0.2855395122250832 0.904691763507473 0  0.2664024720414594 0.9105106934518669 0  0.2471470052281184 0.915924864716955 0  0.2277816716156831 0.9209318704855235 0  0.2083150798749952 0.925529484941822 0  0.1887558836902123 0.9297156642610294 0  0.1691127779118977 0.9334885475178156 0  0.1493944946918097 0.9368464575135985 0  0.1296097996011066 0.9397879015221259 0  0.1097674877336993 0.9423115719530522 0  0.08987637979647611 0.9444163469332154 0  0.06994531818814397 0.9461012908053551 0  0.04998316306842656 0.9473656545440494 0  0.02999878841936526 0.9482088760886865 0  0.01000107810047723 0.9486305805933245 0  -0.01000107810047732 0.9486305805933245 0  -0.02999878841936514 0.9482088760886865 0  -0.04998316306842644 0.9473656545440494 0  -0.06994531818814406 0.9461012908053551 0  -0.08987637979647599 0.9444163469332155 0  -0.1097674877336992 0.9423115719530522 0  -0.1296097996011065 0.9397879015221259 0  -0.1493944946918096 0.9368464575135985 0  -0.1691127779118979 0.9334885475178156 0  -0.1887558836902122 0.9297156642610294 0  -0.2083150798749951 0.925529484941822 0  -0.227781671615683 0.9209318704855235 0  -0.247147005228118 0.9159248647169551 0  -0.2664024720414591 0.9105106934518669 0  -0.2855395122250831 0.904691763507473 0  -0.3045496185937729 0.8984706616325251 0  -0.3234243403895066 0.8918501533573969 0  -0.3421552870381577 0.8848331817646962 0  -0.3607341318794441 0.8774228661809446 0  -0.3791526158684641 0.8696225007899122 0  -0.3974025512471734 0.8614355531682203 0  -0.4154758251841746 0.8528656627438632 0  -0.4333644033811984 0.8439166391783361 0  -0.4510603336446696 0.8345924606730876 0  -0.4685557494207815 0.8248972722010479 0  -0.4858428732924923 0.8148353836640227 0  -0.5029140204369026 0.8044112679767673 0  -0.5197616020414676 0.7936295590785962 0  -0.536378128677531 0.7824950498734098 0  -0.5527562136296768 0.7710126900990562 0  -0.5688885761794211 0.7591875841269737 0  -0.5847680448417879 0.747024988693091 0  -0.6003875605533187 0.7345303105609973 0  -0.6157401798101142 0.721709104118417 0  -0.6308190777544995 0.7085670689080623 0  -0.6456175512089487 0.6951100470939551 0  -0.6601290216559171 0.6813440208643513 0  -0.6743470381622587 0.6672751097724156 0  -0.688265280246923 0.6529095680158352 0  -0.7018775606906668 0.6382537816565753 0  -0.7151778282865192 0.6233142657820195 0  -0.7281601705297891 0.6080976616087488 0  -0.7408188162464107 0.592610733530255 0  -0.753148138158463 0.5768603661098938 0  -0.7651426553857216 0.5608535610204208 0  -0.7767970358821308 0.5445974339314642 0  -0.7881060988061125 0.5280992113463245 0  -0.7990648168236594 0.5113662273895018 0  -0.8096683183431868 0.4944059205463825 0  -0.8199118896811526 0.477225830356532 0  -0.8297909771574777 0.4598335940620675 0  -0.8393011891198424 0.4422369432125932 0  -0.8484382978959502 0.4244437002282198 0  -0.8571982416729006 0.4064617749221782 0  -0.8655771263028273 0.3882991609845933 0  -0.873571227034005 0.3699639324289636 0  -0.8811769901666499 0.3514642400029395 0  -0.8883910346326833 0.332808307564986 0  -0.8952101534987531 0.3140044284285475 0  -0.9016313153918442 0.295060961675334 0  -0.9076516658468452 0.2759863284393752 0  -0.9132685285754755 0.2567890081634842 0  -0.9184794066559997 0.237477534829808 0  -0.9232819836432135 0.218060493166123 0  -0.9276741245981943 0.1985465148295829 0  -0.931653877037369 0.1789442745695954 0  -0.9352194718004709 0.15926248637155 0  -0.938369323837003 0.1395098995830971 0  -0.9411020329108563 0.1196952950247151 0  -0.9434163842227721 0.09982748108627618 0  -0.9453113489503684 0.07991528981136768 0  -0.9467860847054931 0.05996757297108869 0  -0.9478399359086995 0.03999319812908442 0  -0.9484724340806782 0.02000104469955522 0  -0.9486832980505138 1.161801964362116e-16 0  -0.9484724340806782 -0.02000104469955541 0  -0.9478399359086995 -0.0399931981290842 0  -0.9467860847054931 -0.05996757297108847 0  -0.9453113489503684 -0.07991528981136745 0  -0.9434163842227721 -0.09982748108627594 0  -0.9411020329108563 -0.1196952950247148 0  -0.938369323837003 -0.1395098995830973 0  -0.935219471800471 -0.1592624863715494 0  -0.9316538770373691 -0.1789442745695952 0  -0.9276741245981944 -0.1985465148295827 0  -0.9232819836432136 -0.2180604931661228 0  -0.9184794066559998 -0.2374775348298077 0  -0.9132685285754755 -0.256789008163484 0  -0.9076516658468454 -0.2759863284393745 0  -0.9016313153918442 -0.2950609616753337 0  -0.8952101534987533 -0.3140044284285469 0  -0.8883910346326832 -0.3328083075649862 0  -0.8811769901666497 -0.3514642400029397 0  -0.8735712270340051 -0.3699639324289634 0  -0.8655771263028275 -0.3882991609845931 0  -0.8571982416729007 -0.406461774922178 0  -0.8484382978959503 -0.4244437002282196 0  -0.8393011891198425 -0.4422369432125929 0  -0.8297909771574781 -0.4598335940620669 0  -0.8199118896811529 -0.4772258303565314 0  -0.8096683183431871 -0.494405920546382 0  -0.7990648168236597 -0.5113662273895012 0  -0.7881060988061124 -0.5280992113463246 0  -0.7767970358821309 -0.544597433931464 0  -0.7651426553857217 -0.5608535610204206 0  -0.7531481381584632 -0.5768603661098936 0  -0.7408188162464108 -0.5926107335302547 0  -0.7281601705297893 -0.6080976616087486 0  -0.7151778282865193 -0.6233142657820193 0  -0.7018775606906672 -0.638253781656575 0  -0.6882652802469235 -0.6529095680158347 0  -0.674347038162259 -0.6672751097724151 0  -0.660129021655917 -0.6813440208643514 0  -0.6456175512089486 -0.6951100470939552 0  -0.6308190777544994 -0.7085670689080624 0  -0.6157401798101141 -0.7217091041184172 0  -0.6003875605533191 -0.7345303105609969 0  -0.5847680448417881 -0.7470249886930909 0  -0.5688885761794213 -0.7591875841269736 0  -0.5527562136296765 -0.7710126900990563 0  -0.5363781286775317 -0.7824950498734093 0  -0.519761602041468 -0.7936295590785959 0  -0.5029140204369028 -0.8044112679767672 0  -0.4858428732924925 -0.8148353836640226 0  -0.4685557494207817 -0.8248972722010478 0  -0.4510603336446699 -0.8345924606730875 0  -0.4333644033811982 -0.8439166391783361 0  -0.4154758251841745 -0.8528656627438633 0  -0.3974025512471736 -0.8614355531682203 0  -0.3791526158684643 -0.8696225007899121 0  -0.3607341318794445 -0.8774228661809444 0  -0.342155287038158 -0.8848331817646962 0  -0.3234243403895075 -0.8918501533573966 0  -0.3045496185937727 -0.8984706616325251 0  -0.2855395122250827 -0.9046917635074732 0  -0.2664024720414597 -0.9105106934518667 0  -0.2471470052281185 -0.915924864716955 0  -0.2277816716156832 -0.9209318704855235 0  -0.2083150798749951 -0.925529484941822 0  -0.1887558836902128 -0.9297156642610293 0  -0.1691127779118983 -0.9334885475178155 0  -0.14939449469181 -0.9368464575135985 0  -0.1296097996011069 -0.9397879015221258 0  -0.1097674877336994 -0.942311571953052 0  -0.08987637979647602 -0.9444163469332154 0  -0.06994531818814387 -0.9461012908053551 0  -0.04998316306842625 -0.9473656545440494 0  -0.02999878841936558 -0.9482088760886865 0  -0.01000107810047755 -0.9486305805933245 0  0.0100010781004772 -0.9486305805933245 0  0.02999878841936524 -0.9482088760886865 0  0.04998316306842591 -0.9473656545440494 0  0.06994531818814352 -0.9461012908053552 0  0.08987637979647567 -0.9444163469332155 0  0.1097674877336991 -0.9423115719530522 0  0.1296097996011066 -0.9397879015221259 0  0.1493944946918097 -0.9368464575135985 0  0.1691127779118979 -0.9334885475178156 0  0.1887558836902125 -0.929715
[...]
<PointData  Scalars="f_29-2"> 
<DataArray  type="Float64"  Name="f_29-2"  format="ascii">0.0000000000000000e+00  0.0000000000000000e+00  0.0000000000000000e+00  0.0000000000000000e+00  0.0000000000000000e+00  0.0000000000000000e+00  0.0000000000000000e+00  0.0000000000000000e+00  0.0000000000000000e+00  0.0000000000000000e+00  0.0000000000000000e+00  0.0000000000000000e+00  0.0000000000000000e+00  0.0000000000000000e+00  0.0000000000000000e+00  0.0000000000000000e+00  0.0000000000000000e+00  0.0000000000000000e+00  0.0000000000000000e+00  0.0000000000000000e+00  0.0000000000000000e+00  0.0000000000000000e+00  0.0000000000000000e+00  0.0000000000000000e+00  0.0000000000000000e+00  0.0000000000000000e+00  0.0000000000000000e+00  0.0000000000000000e+00  0.0000000000000000e+00  0.0000000000000000e+00  0.0000000000000000e+00  0.0000000000000000e+00  0.0000000000000000e+00  0.0000000000000000e+00  0.0000000000000000e+00  0.0000000000000000e+00  0.0000000000000000e+00  0.0000000000000000e+00  0.0000000000000000e+00  0.0000000000000000e+00  0.0000000000000000e+00  0.0000000000000000e+00  0.0000000000000000e+00  0.0000000000000000e+00  0.0000000000000000e+00  0.0000000000000000e+00  0.0000000000000000e+00  0.0000000000000000e+00  0.0000000000000000e+00  0.0000000000000000e+00  0.0000000000000000e+00  0.0000000000000000e+00  0.0000000000000000e+00  0.0000000000000000e+00  0.0000000000000000e+00  0.0000000000000000e+00  0.0000000000000000e+00  0.0000000000000000e+00  0.0000000000000000e+00  0.0000000000000000e+00  0.0000000000000000e+00  0.0000000000000000e+00  0.0000000000000000e+00  0.0000000000000000e+00  0.0000000000000000e+00  0.0000000000000000e+00  0.0000000000000000e+00  0.0000000000000000e+00  0.0000000000000000e+00  0.0000000000000000e+00  0.0000000000000000e+00  0.0000000000000000e+00  0.0000000000000000e+00  0.0000000000000000e+00  0.0000000000000000e+00  0.0000000000000000e+00  0.0000000000000000e+00  0.0000000000000000e+00  0.0000000000000000e+00  0.0000000000000000e+00  0.0000000000000000e+00  0.0000000000000000e+00  0.0000000000000000e+00  0.0000000000000000e+00  0.0000000000000000e+00  0.0000000000000000e+00  0.0000000000000000e+00  0.0000000000000000e+00  0.0000000000000000e+00  0.0000000000000000e+00  0.0000000000000000e+00  0.0000000000000000e+00  0.0000000000000000e+00  0.0000000000000000e+00  0.0000000000000000e+00  0.0000000000000000e+00  0.0000000000000000e+00  0.0000000000000000e+00  0.0000000000000000e+00  0.0000000000000000e+00  0.0000000000000000e+00  0.0000000000000000e+00  0.0000000000000000e+00  0.0000000000000000e+00  0.0000000000000000e+00  0.0000000000000000e+00  0.0000000000000000e+00  0.0000000000000000e+00  0.0000000000000000e+00  0.0000000000000000e+00  0.0000000000000000e+00  0.0000000000000000e+00  0.0000000000000000e+00  0.0000000000000000e+00  0.0000000000000000e+00  0.0000000000000000e+00  0.0000000000000000e+00  0.0000000000000000e+00  0.0000000000000000e+00  0.0000000000000000e+00  0.0000000000000000e+00  0.0000000000000000e+00  0.0000000000000000e+00  0.0000000000000000e+00  0.0000000000000000e+00  0.0000000000000000e+00  0.0000000000000000e+00  0.0000000000000000e+00  0.0000000000000000e+00  0.0000000000000000e+00  0.0000000000000000e+00  0.0000000000000000e+00  0.0000000000000000e+00  0.0000000000000000e+00  0.0000000000000000e+00  0.0000000000000000e+00  0.0000000000000000e+00  0.0000000000000000e+00  0.0000000000000000e+00  0.0000000000000000e+00  0.0000000000000000e+00  0.0000000000000000e+00  0.0000000000000000e+00  0.0000000000000000e+00  0.0000000000000000e+00  0.0000000000000000e+00  0.0000000000000000e+00  0.0000000000000000e+00  0.0000000000000000e+00  0.0000000000000000e+00  0.0000000000000000e+00  0.0000000000000000e+00  0.0000000000000000e+00  0.0000000000000000e+00  0.0000000000000000e+00  0.0000000000000000e+00  0.0000000000000000e+00  0.0000000000000000e+00  0.0000000000000000e+00  0.0000000000000000e+00  0.0000000000000000e+00  0.0000000000000000e+00  0.0000000000000000e+00  0.0000000000000000e+00  0.0000000000000000e+00  0.0000000000000000e+00  0.0000000000000000e+00  0.0000000000000000e+00  0.0000000000000000e+00  0.0000000000000000e+00  0.0000000000000000e+00  0.0000000000000000e+00  0.0000000000000000e+00  0.0000000000000000e+00  0.0000000000000000e+00  0.0000000000000000e+00  0.0000000000000000e+00  0.0000000000000000e+00  0.0000000000000000e+00  0.0000000000000000e+00  0.0000000000000000e+00  0.0000000000000000e+00  0.0000000000000000e+00  0.0000000000000000e+00  0.0000000000000000e+00  0.0000000000000000e+00  0.0000000000000000e+00  0.0000000000000000e+00  0.0000000000000000e+00  0.0000000000000000e+00  0.0000000000000000e+00  0.0000000000000000e+00  0.0000000000000000e+00  0.0000000000000000e+00  0.0000000000000000e+00  0.0000000000000000e+00  0.0000000000000000e+00  0.0000000000000000e+00  0.0000000000000000e+00  0.0000000000000000e+00  0.0000000000000000e+00  0.0000000000000000e+00  0.0000000000000000e+00  0.0000000000000000e+00  0.0000000000000000e+00  0.0000000000000000e+00  0.0000000000000000e+00  0.0000000000000000e+00  0.0000000000000000e+00  0.0000000000000000e+00  0.0000000000000000e+00  0.0000000000000000e+00  0.0000000000000000e+00  0.0000000000000000e+00  0.0000000000000000e+00  0.0000000000000000e+00  0.0000000000000000e+00  0.0000000000000000e+00  0.0000000000000000e+00  0.0000000000000000e+00  0.0000000000000000e+00  0.0000000000000000e+00  0.0000000000000000e+00  0.0000000000000000e+00  0.0000000000000000e+00  0.0000000000000000e+00  0.0000000000000000e+00  0.0000000000000000e+00  0.0000000000000000e+00  0.0000000000000000e+00  0.0000000000000000e+00  0.0000000000000000e+00  0.0000000000000000e+00  0.0000000000000000e+00  0.0000000000000000e+00  0.0000000000000000e+00  0.0000000000000000e+00  0.0000000000000000e+00  0.0000000000000000e+00  0.0000000000000000e+00  0.0000000000000000e+00  0.0000000000000000e+00  0.0000000000000000e+00  0.0000000000000000e+00  0.0000000000000000e+00  0.0000000000000000e+00  0.0000000000000000e+00  0.0000000000000000e+00  0.0000000000000000e+00  0.0000000000000000e+00  0.0000000000000000e+00  0.0000000000000000e+00  0.0000000000000000e+00  0.0000000000000000e+00  0.0000000000000000e+00  0.0000000000000000e+00  0.0000000000000000e+00  0.0000000000000000e+00  0.0000000000000000e+00  0.0000000000000000e+00  0.0000000000000000e+00  0.0000000000000000e+00  0.0000000000000000e+00  0.0000000000000000e+00  0.0000000000000000e+00  0.0000000000000000e+00  0.0000000000000000e+00  0.0000000000000000e+00  0.0000000000000000e+00  0.0000000000000000e+00  0.0000000000000000e+00  0.0000000000000000e+00  0.0000000000000000e+00  0.0000000000000000e+00  0.0000000000000000e+00  0.0000000000000000e+00  0.0000000000000000e+00  0.0000000000000000e+00  0.0000000000000000e+00  0.0000000000000000e+00  0.0000000000000000e+00  0.0000000000000000e+00  0.0000000000000000e+00  0.0000000000000000e+00  0.0000000000000000e+00  0.0000000000000000e+00  0.0000000000000000e+00  0.0000000000000000e+00  0.0000000000000000e+00  0.0000000000000000e+00  0.0000000000000000e+00  0.0000000000000000e+00  0.0000000000000000e+00  0.0000000000000000e+00  0.0000000000000000e+00  0.0000000000000000e+00  0.0000000000000000e+00  0.0000000000000000e+00  1.2474654240482346e+00  9.3580921645237880e-01  9.3573889372730201e-01  9.3575805019052227e-01  9.3578558556907521e-01  9.1482791613353609e-01  8.8108701889899477e-01  7.4996906501817440e-01  7.4989628719185353e-01  6.8658661041267044e-01  6.8345568301622794e-01  6.6291613154259499e-01  6.5439284345837756e-01  1.1295195890325604e+00  1.1295132272188204e+00  1.1420991047944524e+00  5.8198726610566731e-01  5.8194906062109519e-01  5.8614483027052611e-01  5.8196121145601076e-01  1.1433950166112246e+00  1.1221621252593055e+00  5.5843058707571114e-01  5.5943336139437838e-01  1.0857961007217176e+00  5.4669730433035846e-01  5.2919618013155867e-01  5.7144075449600784e-01  5.8459058606732250e-01  5.2685171604871905e-01  9.4266610868715062e-01  6.6207281443051968e-01  4.4321893721099859e-01  4.4322376259223767e-01  4.4705954686999400e-01  4.4322791283965146e-01  9.5395685502013927e-01  8.6013079774804446e-01  8.6004728795176777e-01  9.5806521480986973e-01  8.6605820024059943e-01  1.1981623601439861e+00  1.2027988852023541e+00  9.3627217807727670e-01  4.1113872164574239e-01  4.0195567515060066e-01  4.0969304239446075e-01  4.0292533972352723e-01  6.7847850706954116e-01  3.9968526833940843e-01  4.0003205783093138e-01  3.8050425346722239e-01  3.8914069120634709e-01  8.7925308893218879e-01  8.0498382772545063e-01  9.1019693534238688e-01  3.7888494126748273e-01  3.7851853223549825e-01  1.1170407284469144e+00  9.7237131143779409e-01  1.2145376931911251e+00  1.2088483906138752e+00  1.1933526785062021e+00  7.7611896239259570e-01  1.0966450108409322e+00  3.8927557924138950e-01  1.0436160826918985e+00  1.0891935504460521e+00  3.7531065567827687e-01  3.5730552284053529e-01  7.5092879768113596e-01  8.4193040108817563e-01  3.4996031791884569e-01  1.0890639189813947e+00  1.2177308231662667e+00  1.0392503297864579e+00  1.0283994939859655e+00  1.0604511099369840e+00  1.0337958013242403e+00  7.8474333166443988e-01  3.3414606128935664e-01  3.3108341676269198e-01  3.3101134786817460e-01  6.9064372216028791e-01  3.3173189293787764e-01  3.5352920172831853e-01  8.1233139132629917e-01  7.1471974712620112e-01  3.2089494022327952e-01  1.0227510578249488e+00  7.7517642362238248e-01  8.1773875613527180e-01  6.7576274647011414e-01  3.1227650226520542e-01  9.6225795222642951e-01  6.7678784542366688e-01  6.7674966293599703e-01  3.1019115469308967e-01  1.0265927563523927e+00  3.1109885984034652e-01  7.3107161305781976e-01  3.1143574654515932e-01  6.4552113262373367e-01  7.7917057264675638e-01  7.5190191561505682e-01  1.1490653715366941e+00  1.0532003437218218e+00  1.0329293481801523e+00  2.9818345465699025e-01  6.1876189494359624e-01  2.8556538376934026e-01  1.0159483413344947e+00  7.2025581771102931e-01  8.0587135514038910e-01  3.1228451852015549e-01  6.2436846214061192e-01  1.2044770444917221e+00  8.1085901400855576e-01  5.4807001268088873e-01  6.2978741843597330e-01  3.2899176764940019e-01  3.0704262792175041e-01  5.4595294731437749e-01  9.0306660608161016e-01  1.1427081438524114e+00  7.4776850819878782e-01  5.9511567146629196e-01  1.1359417909696936e+00  2.8129384953260894e-01  5.9873856643155932e-01  3.7492639994625371e-01  2.9302213882901756e-01  5.6645395735618254e-01  9.1319762969888962e-01  2.8333148709171052e-01  2.8633264968821875e-01  2.7262317098761990e-01  2.7161015684791806e-01  7.0670009567289827e-01  1.2024364731520247e+00  4.5470552196140829e-01  9.9456051027395520e-01  5.8662242327491754e-01  1.1263066510472133e+00  4.9896672110747442e-01  1.2335406645522515e+00  5.5646502705534873e-01  1.0625287548214546e+00  2.4649114625329396e-01  3.7457096071852841e-01  2.7155170015894065e-01  8.8901888116393779e-01  8.0845017431902322e-01  1.0554199570469447e+00  8.2118113603890219e-01  2.4553939855630275e-01  2.4718313169887782e-01  2.4051882340227851e-01  2.4043181154461138e-01  4.9992704556198364e-01  7.7740212494180205e-01  1.1617667632808562e+00  5.1676224891999301e-01  4.8128501141103908e-01  6.8646001016441371e-01  8.2162657398136130e-01  5.7506059651185304e-01  8.6412071061466289e-01  9.8049495995167379e-01  1.2347700046923840e+00  1.1647011176075555e+00  5.2685927029347401e-01  8.1148639897328489e-01  2.5229478537970579e-01  1.1362887398827979e+00  1.0582833410639583e+00  9.4468351804969708e-01  5.2532330558718054e-01  1.0380280143625729e+00  5.5156357156984959e-01  8.6618586412987242e-01  9.4829902193629012e-01  5.1428971530453493e-01  8.3645431227179934e-01  4.8450678379959827e-01  5.5060370312232898e-01  1.1618709492623882e+00  1.2350201051151808e+00  1.1683794996448813e+00  2.2558961271002051e-01  2.3465611959746754e-01  9.1712752404720821e-01  2.2696677976330290e-01  2.4534003073141433e-01  9.0178586377180281e-01  8.1236634320779932e-01  7.3480786587989699e-01  8.1232771497204359e-01  7.2396951999546222e-01  9.4264510784290922e-01  7.3429761134495852e-01  5.6338418535879931e-01  2.2789398440377040e-01  2.1861109441590118e-01  2.1895270517548773e-01  4.9685660810793969e-01  8.4053622405557349e-01  4.9839963966368050e-01  4.7972180693764777e-01  2.2079331152044546e-01  2.1946106423363546e-01  9.6808745936312735e-01  1.0553381211281474e+00  2.1901791692231851e-01  1.0372374841878818e+00  1.0317068385017383e+00  1.1149688981615222e+00  2.1120451457167502e-01  9.2966100680176922e-01  2.1633422151133525e-01  1.2377020933856759e+00  6.6430893961875404e-01  2.3566553372746624e-01  2.2365826204913128e-01  2.1160169080396923e-01  1.0151467995249221e+00  2.0787884329060460e-01  2.7396649342785084e-01  4.2193474602871650e-01  2.3041935211103218e-01  2.0648060141529714e-01  5.5819951361693787e-01  4.5172271684423948e-01  4.6745898620637294e-01  4.4737371995605352e-01  2.1625411806366684e-01  6.0209987176432722e-01  2.2469821419898137e-01  4.1712484149520307e-01  2.0243448366321862e-01  1.1760762661848050e+00  1.1959627255836924e+00  4.6182061704086774e-01  4.8343549358141691e-01  7.9130691411227094e-01  1.1967415854754260e+00  5.7400782485117496e-01  9.7922860749143692e-01  9.3496917092814436e-01  1.1730016611532588e+00  5.1016310497052486e-01  7.5431948350451627e-01  6.9286760377600631e-01  5.2425142407765646e-01  2.0265436102301129e-01  2.1261101628632181e-01  2.0246580834688582e-01  2.5172875589351151e-01  9.3889713357127191e-01  9.4226944039022487e-01  7.2272212818547321e-01  2.0721771097516450e-01  7.1527112033494744e-01  1.0491797857408964e+00  2.0267912587499076e-01  8.2522600480000796e-01  1.0927223738462470e+00  1.0877448296037528e+00  1.2164543127083138e+00  1.1480172392059134e+00  7.1617194735306877e-01  1.2392548667216545e+00  2.0666184173771185e-01  1.1019085422203947e+00  8.6915823827718830e-01  9.5055364978677936e-01  7.9679590933321132e-01  7.4947918415512138e-01  7.6753660788696099e-01  2.0816747089344906e-01  1.1313633049817826e+00  5.3870167002269653e-01  9.6673105402385007e-01  6.5974685735197258e-01  8.2424637022329650e-01  1.0269975760212549e+00  1.0290429977377888e+00  1.1020106113428523e+00  2.4773186545556802e-01  1.0868879203292794e+00  6.0069806288961425e-01  1.1546247366797844e+00  7.1311266582755528e-01  6.5102581926516290e-01  1.2351333418014434e+00  1.0144190984907966e+00  4.8028688289529348e-01  6.8900784103566903e-01  5.4801349151728496e-01  1.1789362281274094e+00  4.2711349457076503e-01  8.8419350925760432e-01  5.8780400370155739e-01  1.8897160143681904e-01  1.8512197409073780e-01  1.2077748674774662e+00  6.4913989036670539e-01  1.9653980477027225e-01  4.3627471626022796e-01  4.7254633695034359e-01  1.9532360790110306e-01  4.3417079955837773e-01  1.8943269226923778e-01  1.9273944122092923e-01  1.0959389130829873e+00  1.8372404629261976e-01  6.4148477405816029e-01  7.0150787797072556e-01  7.1032078156971101e-01  5.3542964285697026e-01  1.8202533161660028e-01  1.0328074256434119e+00  1.0280880089305906e+00  1.1072180554780084e+00  9.3066554376636623e-01  3.9896167631575941e-01  9.5715568162708853e-01  7.5948281891817770e-01  8.5814765459206088e-01  1.2256751151928595e+00  1.7933346140039599e-01  1.7987827586360350e-01  4.5409679129933395e-01  1.0031949602235146e+00  1.0940058184235393e+00  6.8582719066970643e-01  1.0128209313829211e+00  9.9364074628531995e-01  6.0619312870252062e-01  8.4347936632635079e-01  9.5827716461074897e-01  7.1602559000448429e-01  8.2080129277474667e-01  6.9680983175162226e-01  8.5850305009473837e-01  3.8018747336175057e-01  4.6021584682353461e-01  9.0272282369516033e-01  6.6207799941893775e-01  1.1753783559034898e+00  1.8376738934639669e-01  8.7075941133882595e-01  8.7628972090001822e-01  4.9429093468606439e-01  4.2457680858214397e-01  3.9537437895697597e-01  3.8224802694176985e-01  1.1805133866926270e+00  3.7084682600339175e-01  8.5626884326136399e-01  9.8903722528650684e-01  5.9036863046239274e-01  6.3269737861847919e-01  1.1079947334121980e+00  3.8796320781509985e-01  3.8122362287420691e-01  6.6772794642845146e-01  6.4472015956497608e-01  8.8835272754454875e-01  3.8882890223279959e-01  1.2206483481026635e+00  7.5944178209454916e-01  1.0159960888651198e+00  1.0994144466501903e+00  1.6642746972345740e-01  3.8423881769326695e-01  8.4360194138991618e-01  1.6935714404703178e-01  8.2963081726524290e-01  2.6165415448063267e-01  1.6982077252024216e-01  1.6518206226384299e-01  1.6938717317436561e-01  7.6638376663450913e-01  1.2414763643741922e+00  8.3967287769962751e-01  1.7022186082222865e-01  1.6265748261537635e-01  9.5831856369089097e-01  6.1066746040613618e-01  1.1686474333304779e+00  6.7976743590538635e-01  6.3339307771635112e-01  1.6637267778079587e-01  6.8072125276414586e-01  9.4412593544814305e-01  1.0893542664532736e+00  1.6618125036003370e-01  4.0771949386226569e-01  6.3092921090228127e-01  5.6315138741271276e-01  4.3702353575040032e-01  3.6038485307319928e-01  1.7317356452915425e-01  3.7455788666379419e-01  4.1872967680781931e-01  4.4128998600191888e-01  3.6779332943799137e-01  9.8536815281036261e-01  3.6892619564265594e-01  1.1395611003106545e+00  7.1611896304634459e-01  7.6589347133331875e-01  5.6080541100576498e-01  5.1953299375453255e-01  2.1442832702400616e-01  9.9482133509795001e-01  6.9522089107156371e-01  4.2930990055325691e-01  3.9806799124284770e-01  6.0056044824529042e-01  1.2242172126744599e+00  7.0851767071064897e-01  4.3650018376136601e-01  5.9341634147076361e-01  1.0512639682674723e+00  1.6545970297648380e-01  1.5763219044211729e-01  7.7492907405280942e-01  8.4686743743590498e-01  7.9240645812362642e-01  1.6139327380832486e-01  1.0788234264635208e+00  1.1841579911560445e+00  7.8015734836279516e-01  5.5698908073760334e-01  3.7773278657428816e-01  1.1318652011481398e+00  1.1898590969278349e+00  5.3582688877519080e-01  9.2259176452075242e-01  3.3538655823806346e-01  1.6027741527491343e-01  8.2568157114407914e-01  1.5258282860947342e-01  1.1021430335105526e+00  6.7762997736961339e-01  9.8072491031498299e-01  1.0506896653454902e+00  9.7163780045954296e-01  1.0868712008606003e+00  7.8120549175863563e-01  1.5505939033502214e-01  1.5698479938389534e-01  1.5994715433082804e-01  4.5487696130104643e-01  3.8349273973214903e-01  7.2260977276525484e-01  5.0403904505957753e-01  3.5465863262736047e-01  1.5689512172865158e-01  1.1975310942440767e+00  5.0816079670627989e-01  5.6748222031890438e-01  1.1619382734267030e+00  4.5903062434160224e-01  9.1292738132657458e-01  1.0798057833533574e+00  1.4875102232424403e-01  9.9788421364597923e-01  4.6233272850653784e-01  1.1702207175009662e+00  1.2172059283789356e+00  3.3635280200790602e-01  3.5651702211226038e-01  1.6269233529281171e-01  9.5723321584553478e-01  1.4532862511650813e-01  8.2401763161844954e-01  1.0704140592256992e+00  9.8100125910821878e-01  8.8845950466499135e-01  6.3723008196152353e-01  3.2880152420670011e-01  5.8589960983746636e-01  1.5206806386606425e-01  6.3300434203464018e-01  7.4075885722684442e-01  8.6219806067438742e-01  8.7946628594504228e-01  7.8752609580331001e-01  5.1480993487193305e-01  5.9238511111389969e-01  6.5360707485312786e-01  3.2653452243377790e-01  1.1023031606630211e+00  1.4345619986543698e-01  1.1470330436976151e+00  8.8840200200002517e-01  7.2930000980332377e-01  7.7134913188169307e-01  8.2248419725152844e-01  8.8082550963973671e-01  6.4688674522162892e-01  1.0865115753269368e+00  1.1682186616472368e+00  5.3569939790797527e-01  1.4688126975374810e-01  9.7798264341522934e-01  3.3791080635416038e-01  8.9357825778441069e-01  1.1021992558129292e+00  5.3905130687885294e-01  1.1387921167419366e+00  1.1980601747714692e+00  6.5843393663808936e-01  1.0373410048878007e+00  6.1064334698811995e-01  6.5321713341508825e-01  5.2121016236141660e-01  7.2209685512305499e-01  6.4312348439208800e-01  9.3930297793145190e-01  1.4953596747008488e-01  9.9599077684301007e-01  3.6668366681758729e-01  6.0762254156218376e-01  8.5240835269562476e-01  1.4949745361891573e-01  3.4642012822327972e-01  1.1950260332140472e+00  4.3277212373623