<?xml version="1.0"?>
<VTKFile type="UnstructuredGrid"  version="0.1"  >
<UnstructuredGrid>
<Piece  NumberOfPoints="18071" NumberOfCells="35544">
<Points>
<DataArray  type="Float64"  NumberOfComponents="3"  format="ascii">0.9486832980505138 0 0  0.9484724340806782 0.02000104469955538 0  0.9478399359086995 0.03999319812908447 0  0.9467860847054931 0.0599675729710886 0  0.9453113489503684 0.07991528981136745 0  0.9434163842227721 0.09982748108627622 0  0.9411020329108563 0.119695295024715 0  0.938369323837003 0.1395098995830973 0  0.9352194718004709 0.1592624863715497 0  0.931653877037369 0.1789442745695953 0  0.9276741245981944 0.1985465148295827 0  0.9232819836432135 0.2180604931661231 0  0.9184794066559997 0.2374775348298079 0  0.9132685285754754 0.2567890081634844 0  0.9076516658468453 0.2759863284393749 0  0.9016313153918442 0.2950609616753339 0  0.8952101534987531 0.3140044284285474 0  0.8883910346326832 0.3328083075649862 0  0.8811769901666499 0.3514642400029395 0  0.873571227034005 0.3699639324289635 0  0.8655771263028276 0.3882991609845931 0  0.8571982416729006 0.4064617749221782 0  0.8484382978959503 0.4244437002282196 0  0.8393011891198424 0.4422369432125932 0  0.829790977157478 0.459833594062067 0  0.8199118896811526 0.477225830356532 0  0.8096683183431869 0.4944059205463824 0  0.7990648168236594 0.5113662273895018 0  0.7881060988061126 0.5280992113463244 0  0.7767970358821309 0.5445974339314641 0  0.7651426553857218 0.5608535610204205 0  0.753148138158463 0.5768603661098937 0  0.7408188162464108 0.5926107335302548 0  0.7281601705297891 0.6080976616087488 0  0.7151778282865192 0.6233142657820195 0  0.7018775606906669 0.6382537816565753 0  0.6882652802469232 0.652909568015835 0  0.6743470381622587 0.6672751097724156 0  0.6601290216559174 0.6813440208643511 0  0.6456175512089487 0.6951100470939552 0  0.6308190777544996 0.7085670689080622 0  0.6157401798101144 0.7217091041184169 0  0.6003875605533189 0.734530310560997 0  0.584768044841788 0.7470249886930909 0  0.5688885761794213 0.7591875841269735 0  0.5527562136296766 0.7710126900990562 0  0.5363781286775311 0.7824950498734097 0  0.5197616020414676 0.7936295590785962 0  0.5029140204369025 0.8044112679767674 0  0.4858428732924924 0.8148353836640227 0  0.4685557494207815 0.8248972722010478 0  0.4510603336446699 0.8345924606730875 0  0.4333644033811983 0.8439166391783361 0  0.4154758251841748 0.8528656627438631 0  0.3974025512471733 0.8614355531682203 0  0.379152615868464 0.8696225007899122 0  0.3607341318794444 0.8774228661809444 0  0.342155287038158 0.8848331817646961 0  0.3234243403895067 0.8918501533573969 0  0.3045496185937731 0.898470661632525 0  0.2855395122250832 0.904691763507473 0  0.2664024720414594 0.9105106934518669 0  0.2471470052281184 0.915924864716955 0  0.2277816716156831 0.9209318704855235 0  0.2083150798749952 0.925529484941822 0  0.1887558836902123 0.9297156642610294 0  0.1691127779118977 0.9334885475178156 0  0.1493944946918097 0.9368464575135985 0  0.1296097996011066 0.9397879015221259 0  0.1097674877336993 0.9423115719530522 0  0.08987637979647611 0.9444163469332154 0  0.06994531818814397 0.9461012908053551 0  0.04998316306842656 0.9473656545440494 0  0.02999878841936526 0.9482088760886865 0  0.01000107810047723 0.9486305805933245 0  -0.01000107810047732 0.9486305805933245 0  -0.02999878841936514 0.9482088760886865 0  -0.04998316306842644 0.9473656545440494 0  -0.06994531818814406 0.9461012908053551 0  -0.08987637979647599 0.9444163469332155 0  -0.1097674877336992 0.9423115719530522 0  -0.1296097996011065 0.9397879015221259 0  -0.1493944946918096 0.9368464575135985 0  -0.1691127779118979 0.9334885475178156 0  -0.1887558836902122 0.9297156642610294 0  -0.2083150798749951 0.925529484941822 0  -0.227781671615683 0.9209318704855235 0  -0.247147005228118 0.9159248647169551 0  -0.2664024720414591 0.9105106934518669 0  -0.2855395122250831 0.904691763507473 0  -0.3045496185937729 0.8984706616325251 0  -0.3234243403895066 0.8918501533573969 0  -0.3421552870381577 0.8848331817646962 0  -0.3607341318794441 0.8774228661809446 0  -0.3791526158684641 0.8696225007899122 0  -0.3974025512471734 0.8614355531682203 0  -0.4154758251841746 0.8528656627438632 0  -0.4333644033811984 0.8439166391783361 0  -0.4510603336446696 0.8345924606730876 0  -0.4685557494207815 0.8248972722010479 0  -0.4858428732924923 0.8148353836640227 0  -0.5029140204369026 0.8044112679767673 0  -0.5197616020414676 0.7936295590785962 0  -0.536378128677531 0.7824950498734098 0  -0.5527562136296768 0.7710126900990562 0  -0.5688885761794211 0.7591875841269737 0  -0.5847680448417879 0.747024988693091 0  -0.6003875605533187 0.7345303105609973 0  -0.6157401798101142 0.721709104118417 0  -0.6308190777544995 0.7085670689080623 0  -0.6456175512089487 0.6951100470939551 0  -0.6601290216559171 0.6813440208643513 0  -0.6743470381622587 0.6672751097724156 0  -0.688265280246923 0.6529095680158352 0  -0.7018775606906668 0.6382537816565753 0  -0.7151778282865192 0.6233142657820195 0  -0.7281601705297891 0.6080976616087488 0  -0.7408188162464107 0.592610733530255 0  -0.753148138158463 0.5768603661098938 0  -0.7651426553857216 0.5608535610204208 0  -0.7767970358821308 0.5445974339314642 0  -0.7881060988061125 0.5280992113463245 0  -0.7990648168236594 0.5113662273895018 0  -0.8096683183431868 0.4944059205463825 0  -0.8199118896811526 0.477225830356532 0  -0.8297909771574777 0.4598335940620675 0  -0.8393011891198424 0.4422369432125932 0  -0.8484382978959502 0.4244437002282198 0  -0.8571982416729006 0.4064617749221782 0  -0.8655771263028273 0.3882991609845933 0  -0.873571227034005 0.3699639324289636 0  -0.8811769901666499 0.3514642400029395 0  -0.8883910346326833 0.332808307564986 0  -0.8952101534987531 0.3140044284285475 0  -0.9016313153918442 0.295060961675334 0  -0.9076516658468452 0.2759863284393752 0  -0.9132685285754755 0.2567890081634842 0  -0.9184794066559997 0.237477534829808 0  -0.9232819836432135 0.218060493166123 0  -0.9276741245981943 0.1985465148295829 0  -0.931653877037369 0.1789442745695954 0  -0.9352194718004709 0.15926248637155 0  -0.938369323837003 0.1395098995830971 0  -0.9411020329108563 0.1196952950247151 0  -0.9434163842227721 0.09982748108627618 0  -0.9453113489503684 0.07991528981136768 0  -0.9467860847054931 0.05996757297108869 0  -0.9478399359086995 0.03999319812908442 0  -0.9484724340806782 0.02000104469955522 0  -0.9486832980505138 1.161801964362116e-16 0  -0.9484724340806782 -0.02000104469955541 0  -0.9478399359086995 -0.0399931981290842 0  -0.9467860847054931 -0.05996757297108847 0  -0.9453113489503684 -0.07991528981136745 0  -0.9434163842227721 -0.09982748108627594 0  -0.9411020329108563 -0.1196952950247148 0  -0.938369323837003 -0.1395098995830973 0  -0.935219471800471 -0.1592624863715494 0  -0.9316538770373691 -0.1789442745695952 0  -0.9276741245981944 -0.1985465148295827 0  -0.9232819836432136 -0.2180604931661228 0  -0.9184794066559998 -0.2374775348298077 0  -0.9132685285754755 -0.256789008163484 0  -0.9076516658468454 -0.2759863284393745 0  -0.9016313153918442 -0.2950609616753337 0  -0.8952101534987533 -0.3140044284285469 0  -0.8883910346326832 -0.3328083075649862 0  -0.8811769901666497 -0.3514642400029397 0  -0.8735712270340051 -0.3699639324289634 0  -0.8655771263028275 -0.3882991609845931 0  -0.8571982416729007 -0.406461774922178 0  -0.8484382978959503 -0.4244437002282196 0  -0.8393011891198425 -0.4422369432125929 0  -0.8297909771574781 -0.4598335940620669 0  -0.8199118896811529 -0.4772258303565314 0  -0.8096683183431871 -0.494405920546382 0  -0.7990648168236597 -0.5113662273895012 0  -0.7881060988061124 -0.5280992113463246 0  -0.7767970358821309 -0.544597433931464 0  -0.7651426553857217 -0.5608535610204206 0  -0.7531481381584632 -0.5768603661098936 0  -0.7408188162464108 -0.5926107335302547 0  -0.7281601705297893 -0.6080976616087486 0  -0.7151778282865193 -0.6233142657820193 0  -0.7018775606906672 -0.638253781656575 0  -0.6882652802469235 -0.6529095680158347 0  -0.674347038162259 -0.6672751097724151 0  -0.660129021655917 -0.6813440208643514 0  -0.6456175512089486 -0.6951100470939552 0  -0.6308190777544994 -0.7085670689080624 0  -0.6157401798101141 -0.7217091041184172 0  -0.6003875605533191 -0.7345303105609969 0  -0.5847680448417881 -0.7470249886930909 0  -0.5688885761794213 -0.7591875841269736 0  -0.5527562136296765 -0.7710126900990563 0  -0.5363781286775317 -0.7824950498734093 0  -0.519761602041468 -0.7936295590785959 0  -0.5029140204369028 -0.8044112679767672 0  -0.4858428732924925 -0.8148353836640226 0  -0.4685557494207817 -0.8248972722010478 0  -0.4510603336446699 -0.8345924606730875 0  -0.4333644033811982 -0.8439166391783361 0  -0.4154758251841745 -0.8528656627438633 0  -0.3974025512471736 -0.8614355531682203 0  -0.3791526158684643 -0.8696225007899121 0  -0.3607341318794445 -0.8774228661809444 0  -0.342155287038158 -0.8848331817646962 0  -0.3234243403895075 -0.8918501533573966 0  -0.3045496185937727 -0.8984706616325251 0  -0.2855395122250827 -0.9046917635074732 0  -0.2664024720414597 -0.9105106934518667 0  -0.2471470052281185 -0.915924864716955 0  -0.2277816716156832 -0.9209318704855235 0  -0.2083150798749951 -0.925529484941822 0  -0.1887558836902128 -0.9297156642610293 0  -0.1691127779118983 -0.9334885475178155 0  -0.14939449469181 -0.9368464575135985 0  -0.1296097996011069 -0.9397879015221258 0  -0.1097674877336994 -0.942311571953052 0  -0.08987637979647602 -0.9444163469332154 0  -0.06994531818814387 -0.9461012908053551 0  -0.04998316306842625 -0.9473656545440494 0  -0.02999878841936558 -0.9482088760886865 0  -0.01000107810047755 -0.9486305805933245 0  0.0100010781004772 -0.9486305805933245 0  0.02999878841936524 -0.9482088760886865 0  0.04998316306842591 -0.9473656545440494 0  0.06994531818814352 -0.9461012908053552 0  0.08987637979647567 -0.9444163469332155 0  0.1097674877336991 -0.9423115719530522 0  0.1296097996011066 -0.9397879015221259 0  0.1493944946918097 -0.9368464575135985 0  0.1691127779118979 -0.9334885475178156 0  0.1887558836902125 -0.929715
[...]
<PointData  Scalars="f_29-2"> 
<DataArray  type="Float64"  Name="f_29-2"  format="ascii">0.0000000000000000e+00  0.0000000000000000e+00  0.0000000000000000e+00  0.0000000000000000e+00  0.0000000000000000e+00  0.0000000000000000e+00  0.0000000000000000e+00  0.0000000000000000e+00  0.0000000000000000e+00  0.0000000000000000e+00  0.0000000000000000e+00  0.0000000000000000e+00  0.0000000000000000e+00  0.0000000000000000e+00  0.0000000000000000e+00  0.0000000000000000e+00  0.0000000000000000e+00  0.0000000000000000e+00  0.0000000000000000e+00  0.0000000000000000e+00  0.0000000000000000e+00  0.0000000000000000e+00  0.0000000000000000e+00  0.0000000000000000e+00  0.0000000000000000e+00  0.0000000000000000e+00  0.0000000000000000e+00  0.0000000000000000e+00  0.0000000000000000e+00  0.0000000000000000e+00  0.0000000000000000e+00  0.0000000000000000e+00  0.0000000000000000e+00  0.0000000000000000e+00  0.0000000000000000e+00  0.0000000000000000e+00  0.0000000000000000e+00  0.0000000000000000e+00  0.0000000000000000e+00  0.0000000000000000e+00  0.0000000000000000e+00  0.0000000000000000e+00  0.0000000000000000e+00  0.0000000000000000e+00  0.0000000000000000e+00  0.0000000000000000e+00  0.0000000000000000e+00  0.0000000000000000e+00  0.0000000000000000e+00  0.0000000000000000e+00  0.0000000000000000e+00  0.0000000000000000e+00  0.0000000000000000e+00  0.0000000000000000e+00  0.0000000000000000e+00  0.0000000000000000e+00  0.0000000000000000e+00  0.0000000000000000e+00  0.0000000000000000e+00  0.0000000000000000e+00  0.0000000000000000e+00  0.0000000000000000e+00  0.0000000000000000e+00  0.0000000000000000e+00  0.0000000000000000e+00  0.0000000000000000e+00  0.0000000000000000e+00  0.0000000000000000e+00  0.0000000000000000e+00  0.0000000000000000e+00  0.0000000000000000e+00  0.0000000000000000e+00  0.0000000000000000e+00  0.0000000000000000e+00  0.0000000000000000e+00  0.0000000000000000e+00  0.0000000000000000e+00  0.0000000000000000e+00  0.0000000000000000e+00  0.0000000000000000e+00  0.0000000000000000e+00  0.0000000000000000e+00  0.0000000000000000e+00  0.0000000000000000e+00  0.0000000000000000e+00  0.0000000000000000e+00  0.0000000000000000e+00  0.0000000000000000e+00  0.0000000000000000e+00  0.0000000000000000e+00  0.0000000000000000e+00  0.0000000000000000e+00  0.0000000000000000e+00  0.0000000000000000e+00  0.0000000000000000e+00  0.0000000000000000e+00  0.0000000000000000e+00  0.0000000000000000e+00  0.0000000000000000e+00  0.0000000000000000e+00  0.0000000000000000e+00  0.0000000000000000e+00  0.0000000000000000e+00  0.0000000000000000e+00  0.0000000000000000e+00  0.0000000000000000e+00  0.0000000000000000e+00  0.0000000000000000e+00  0.0000000000000000e+00  0.0000000000000000e+00  0.0000000000000000e+00  0.0000000000000000e+00  0.0000000000000000e+00  0.0000000000000000e+00  0.0000000000000000e+00  0.0000000000000000e+00  0.0000000000000000e+00  0.0000000000000000e+00  0.0000000000000000e+00  0.0000000000000000e+00  0.0000000000000000e+00  0.0000000000000000e+00  0.0000000000000000e+00  0.0000000000000000e+00  0.0000000000000000e+00  0.0000000000000000e+00  0.0000000000000000e+00  0.0000000000000000e+00  0.0000000000000000e+00  0.0000000000000000e+00  0.0000000000000000e+00  0.0000000000000000e+00  0.0000000000000000e+00  0.0000000000000000e+00  0.0000000000000000e+00  0.0000000000000000e+00  0.0000000000000000e+00  0.0000000000000000e+00  0.0000000000000000e+00  0.0000000000000000e+00  0.0000000000000000e+00  0.0000000000000000e+00  0.0000000000000000e+00  0.0000000000000000e+00  0.0000000000000000e+00  0.0000000000000000e+00  0.0000000000000000e+00  0.0000000000000000e+00  0.0000000000000000e+00  0.0000000000000000e+00  0.0000000000000000e+00  0.0000000000000000e+00  0.0000000000000000e+00  0.0000000000000000e+00  0.0000000000000000e+00  0.0000000000000000e+00  0.0000000000000000e+00  0.0000000000000000e+00  0.0000000000000000e+00  0.0000000000000000e+00  0.0000000000000000e+00  0.0000000000000000e+00  0.0000000000000000e+00  0.0000000000000000e+00  0.0000000000000000e+00  0.0000000000000000e+00  0.0000000000000000e+00  0.0000000000000000e+00  0.0000000000000000e+00  0.0000000000000000e+00  0.0000000000000000e+00  0.0000000000000000e+00  0.0000000000000000e+00  0.0000000000000000e+00  0.0000000000000000e+00  0.0000000000000000e+00  0.0000000000000000e+00  0.0000000000000000e+00  0.0000000000000000e+00  0.0000000000000000e+00  0.0000000000000000e+00  0.0000000000000000e+00  0.0000000000000000e+00  0.0000000000000000e+00  0.0000000000000000e+00  0.0000000000000000e+00  0.0000000000000000e+00  0.0000000000000000e+00  0.0000000000000000e+00  0.0000000000000000e+00  0.0000000000000000e+00  0.0000000000000000e+00  0.0000000000000000e+00  0.0000000000000000e+00  0.0000000000000000e+00  0.0000000000000000e+00  0.0000000000000000e+00  0.0000000000000000e+00  0.0000000000000000e+00  0.0000000000000000e+00  0.0000000000000000e+00  0.0000000000000000e+00  0.0000000000000000e+00  0.0000000000000000e+00  0.0000000000000000e+00  0.0000000000000000e+00  0.0000000000000000e+00  0.0000000000000000e+00  0.0000000000000000e+00  0.0000000000000000e+00  0.0000000000000000e+00  0.0000000000000000e+00  0.0000000000000000e+00  0.0000000000000000e+00  0.0000000000000000e+00  0.0000000000000000e+00  0.0000000000000000e+00  0.0000000000000000e+00  0.0000000000000000e+00  0.0000000000000000e+00  0.0000000000000000e+00  0.0000000000000000e+00  0.0000000000000000e+00  0.0000000000000000e+00  0.0000000000000000e+00  0.0000000000000000e+00  0.0000000000000000e+00  0.0000000000000000e+00  0.0000000000000000e+00  0.0000000000000000e+00  0.0000000000000000e+00  0.0000000000000000e+00  0.0000000000000000e+00  0.0000000000000000e+00  0.0000000000000000e+00  0.0000000000000000e+00  0.0000000000000000e+00  0.0000000000000000e+00  0.0000000000000000e+00  0.0000000000000000e+00  0.0000000000000000e+00  0.0000000000000000e+00  0.0000000000000000e+00  0.0000000000000000e+00  0.0000000000000000e+00  0.0000000000000000e+00  0.0000000000000000e+00  0.0000000000000000e+00  0.0000000000000000e+00  0.0000000000000000e+00  0.0000000000000000e+00  0.0000000000000000e+00  0.0000000000000000e+00  0.0000000000000000e+00  0.0000000000000000e+00  0.0000000000000000e+00  0.0000000000000000e+00  0.0000000000000000e+00  0.0000000000000000e+00  0.0000000000000000e+00  0.0000000000000000e+00  0.0000000000000000e+00  0.0000000000000000e+00  0.0000000000000000e+00  0.0000000000000000e+00  0.0000000000000000e+00  0.0000000000000000e+00  0.0000000000000000e+00  0.0000000000000000e+00  0.0000000000000000e+00  0.0000000000000000e+00  0.0000000000000000e+00  0.0000000000000000e+00  0.0000000000000000e+00  0.0000000000000000e+00  0.0000000000000000e+00  0.0000000000000000e+00  0.0000000000000000e+00  0.0000000000000000e+00  0.0000000000000000e+00  0.0000000000000000e+00  0.0000000000000000e+00  0.0000000000000000e+00  0.0000000000000000e+00  0.0000000000000000e+00  0.0000000000000000e+00  0.0000000000000000e+00  0.0000000000000000e+00  0.0000000000000000e+00  0.0000000000000000e+00  0.0000000000000000e+00  0.0000000000000000e+00  0.0000000000000000e+00  0.0000000000000000e+00  0.0000000000000000e+00  0.0000000000000000e+00  0.0000000000000000e+00  0.0000000000000000e+00  1.2297417352330056e+00  9.2394008733298372e-01  9.2387100585920945e-01  9.2388926313971076e-01  9.2391673383517847e-01  9.0331392526178222e-01  8.7013494165569583e-01  7.4109187865072457e-01  7.4101959249234750e-01  6.7864978564570644e-01  6.7556421576936421e-01  6.5532075484691954e-01  6.4691972424143707e-01  1.1141413905310324e+00  1.1141351239894808e+00  1.1264785035774252e+00  5.7552085020564059e-01  5.7548366749726254e-01  5.7962162701766240e-01  5.7549514627463938e-01  1.1277493765354587e+00  1.1069249387435192e+00  5.5228146247573062e-01  5.5327033711378681e-01  1.0712463413998246e+00  5.4070399487823806e-01  5.2343342252511993e-01  5.6511670720788909e-01  5.7808826608020125e-01  5.2111937472909409e-01  9.3067954881605663e-01  6.5449046682909118e-01  4.3854819512272525e-01  4.3855384589422231e-01  4.4234207283938776e-01  4.3855753659977920e-01  9.4177621229114994e-01  8.4952236486194554e-01  8.4943997232728286e-01  9.4581364887363495e-01  8.5535354498554494e-01  1.1814390364967089e+00  1.1859827684600674e+00  9.2439520306832890e-01  4.0685976514821065e-01  3.9778802478044495e-01  4.0543043625817643e-01  3.9874531220523046e-01  6.7065960187848483e-01  3.9554400974982989e-01  3.9588667931004640e-01  3.7659032990380437e-01  3.8512537129544500e-01  8.6833195447118949e-01  7.9525720506613773e-01  8.9876076741712541e-01  3.7499133667121365e-01  3.7462790847914285e-01  1.1019011636876699e+00  9.5987112674068442e-01  1.1974852986773659e+00  1.1919107197462002e+00  1.1767254502249116e+00  7.6684131061530436e-01  1.0818918098670249e+00  3.8525887288370358e-01  1.0298450963247472e+00  1.0745801705597677e+00  3.7145822152080354e-01  3.5366344380428155e-01  7.4203647216738056e-01  8.3161638570633301e-01  3.4640371986721297e-01  1.0744530566750046e+00  1.2006139278434926e+00  1.0255585673173360e+00  1.0149045283850342e+00  1.0463717177150129e+00  1.0202035911910079e+00  7.7533251689931604e-01  3.3077065446189663e-01  3.2774280737840705e-01  3.2767188014015619e-01  6.8264795417062163e-01  3.2838348811297036e-01  3.4993077087726049e-01  8.0248888567224708e-01  7.0637041763993680e-01  3.1766985962699962e-01  1.0093578746759884e+00  7.6591316407565357e-01  8.0781076128906859e-01  6.6798295560698273e-01  3.0914881483916246e-01  9.4993343959341636e-01  6.6899310775245269e-01  6.6895631184160331e-01  3.0708655070538582e-01  1.0131306771025763e+00  3.0798430970327201e-01  7.2247883863030293e-01  3.0831747598890846e-01  6.3817345241126255e-01  7.6984647675378859e-01  7.4299449575620125e-01  1.1333096374510350e+00  1.0392543248187887e+00  1.0193526818229910e+00  2.9521299178078442e-01  6.1179046031471240e-01  2.8273457874147528e-01  1.0026773528447857e+00  7.1182463810840624e-01  7.9613090041731727e-01  3.0915641280620243e-01  6.1731879585344818e-01  1.1876272672101629e+00  8.0103944087688572e-01  5.4205807474408829e-01  6.2266148589149861e-01  3.2567461946549270e-01  3.0397362680335405e-01  5.3996895195357342e-01  8.9175014835146371e-01  1.1270757597690984e+00  7.3892394644442017e-01  5.8846984064943175e-01  1.1204401263541572e+00  2.7851010986820285e-01  5.9204379309523680e-01  3.7107929707341653e-01  2.9010888202220175e-01  5.6019714780142937e-01  9.0171104981196482e-01  2.8052578416657298e-01  2.8349238373211832e-01  2.6993455028783886e-01  2.6893195615485482e-01  6.9846945989742615e-01  1.1856275843289528e+00  4.4989377465329261e-01  9.8167062292803897e-01  5.8009276437765200e-01  1.1109900729071185e+00  4.9359503010393280e-01  1.2161024310234132e+00  5.5034150643646385e-01  1.0484109749440942e+00  2.4408519991435648e-01  3.7072709979845719e-01  2.6887483923846167e-01  8.7793594673406550e-01  7.9866928243637580e-01  1.0414329115247358e+00  8.1119869294608482e-01  2.4314335516396657e-01  2.4476918123533364e-01  2.3817721862825922e-01  2.3809000397536967e-01  4.9454291672612771e-01  7.6810494082120895e-01  1.1457636623577858e+00  5.1116158626877406e-01  4.7613859549468723e-01  6.7852533932749559e-01  8.1163740866703815e-01  5.6868827861661553e-01  8.5344770942731951e-01  9.6785291358341530e-01  1.2173066802502011e+00  1.1486403796072984e+00  5.2112672215803468e-01  8.0165688739476393e-01  2.4982533845358570e-01  1.1207804074424303e+00  1.0442440905226389e+00  9.3266224316675084e-01  5.1961116942167884e-01  1.0243588138910653e+00  5.4550601151397993e-01  8.5547879420658735e-01  9.3621582503246825e-01  5.0872141905522372e-01  8.2622790325029338e-01  4.7931964593020154e-01  5.4455834235840017e-01  1.1458656300292522e+00  1.2175516600000886e+00  1.1522465139485707e+00  2.2340544183282840e-01  2.3237661851657782e-01  9.0557503313415988e-01  2.2476875876530003e-01  2.4294614341611559e-01  8.9049091701853589e-01  8.0252335661951957e-01  7.2615868929934302e-01  8.0248469544497347e-01  7.1548267855454550e-01  9.3065917214662230e-01  7.2565602479300506e-01  5.5716833556376177e-01  2.2568581558103126e-01  2.1650038537609614e-01  2.1683846716587060e-01  4.9151268138328363e-01  8.3024484971323098e-01  4.9303623588305090e-01  4.7459550727975885e-01  2.1865918918327987e-01  2.1734142804671328e-01  9.5566175549084853e-01  1.0413527335825359e+00  2.1690257129953067e-01  1.0235829275311767e+00  1.0181523482091801e+00  1.0998686943988167e+00  2.0917096699062276e-01  9.1789680705715038e-01  2.1424735127434985e-01  1.2201788306334416e+00  6.5669383778970492e-01  2.3337402660121792e-01  2.2149390870756677e-01  2.0956432903852618e-01  1.0018902795125095e+00  2.0587933539804681e-01  2.7126298059440357e-01  4.1752438119595631e-01  2.2818393177024446e-01  2.0449601193524222e-01  5.5205353242578958e-01  4.4694679554086691e-01  4.6248681190638774e-01  4.4265228152717262e-01  2.1416764137315555e-01  5.9535855163502938e-01  2.2252333248217018e-01  4.1277274729809238e-01  2.0049201074710479e-01  1.1597918035026245e+00  1.1792834001732133e+00  4.5691968603562311e-01  4.7826224795105826e-01  7.8179360310543178e-01  1.1800466475902855e+00  5.6764930875435671e-01  9.6660840679121174e-01  9.2311448264172036e-01  1.1567776534132930e+00  5.0464696096622763e-01  7.4537592078505754e-01  6.8483972732472831e-01  5.1855221779570093e-01  2.0070981002559976e-01  2.1056299647940893e-01  2.0052338094653482e-01  2.4926642205611743e-01  9.2697521789937198e-01  9.3028941665903664e-01  7.1425354832810017e-01  2.0522693276929643e-01  7.0691423727553826e-01  1.0353073142159901e+00  2.0073375414542910e-01  8.1517948692932563e-01  1.0780428439480119e+00  1.0731587127620859e+00  1.1993633027097974e+00  1.1322819939289310e+00  7.0780136001187555e-01  1.2216997953231106e+00  2.0467540717001706e-01  1.0870561500716653e+00  8.5840215702832690e-01  9.3843185451792144e-01  7.8719716553746599e-01  7.4060918690145683e-01  7.5839088614744687e-01  2.0616560973895909e-01  1.1159497397652578e+00  5.3281373922897124e-01  9.5432918375530018e-01  6.5219837895269861e-01  8.1421553794182677e-01  1.0135279177783230e+00  1.0155368967285217e+00  1.0871562841066842e+00  2.4531286707574046e-01  1.0723176640364820e+00  5.9397602935678417e-01  1.1387609628458295e+00  7.0478688436753012e-01  6.4360101908717948e-01  1.2176626363543732e+00  1.0011757342575909e+00  4.7515354675083304e-01  6.8103641226033507e-01  5.4200176352295237e-01  1.1625952093817027e+00  4.2264038038959340e-01  8.7319098996901412e-01  5.8125810447133763e-01  1.8716900774990075e-01  1.8335786092716949e-01  1.1908588229925614e+00  6.4174120912672450e-01  1.9465792238022014e-01  4.3168995853020031e-01  4.6751054308991641e-01  1.9345560469122722e-01  4.2961163039462841e-01  1.8762457529486093e-01  1.9089756762270180e-01  1.0811991664702523e+00  1.8197521241156175e-01  6.3419473841818963e-01  6.9335268712521203e-01  7.0203634939354487e-01  5.2958518520581610e-01  1.8029177508271238e-01  1.0192329567802698e+00  1.0145987979819355e+00  1.0922648473037826e+00  9.1888406929935162e-01  3.9482938470435985e-01  9.4491976443892223e-01  7.5046086435378834e-01  8.4757113102447112e-01  1.2083971127292921e+00  1.7762687256217788e-01  1.7816803981014434e-01  4.4929148012924797e-01  9.9015170532390673e-01  1.0793024058608043e+00  6.7790118227510310e-01  9.9960625738415898e-01  9.8076701321317528e-01  5.9939485866160924e-01  8.3314019046739873e-01  9.4602201661887342e-01  7.0765663662929146e-01  8.1082528726541436e-01  6.8872425874369803e-01  8.4792087080608236e-01  3.7627718561117324e-01  4.5533447497367163e-01  8.9141233474019066e-01  6.5449472106549089e-01  1.1591076741356137e+00  1.8201627950458865e-01  8.5997722652545938e-01  8.6541710515464754e-01  4.8897970718129180e-01  4.2013563350434924e-01  3.9128408144601096e-01  3.7831345084095513e-01  1.1641412523102090e+00  3.6704692730251204e-01  8.4572312635855607e-01  9.7624470462022428e-01  5.8378855050672906e-01  6.2552994622263214e-01  1.0930271488624201e+00  3.8396112312247871e-01  3.7730233301375932e-01  6.6006458337631835e-01  6.3738488504185753e-01  8.7728096161910907e-01  3.8481688998039443e-01  1.2034724006439852e+00  7.5041967993859426e-01  1.0027246494852893e+00  1.0846092100691995e+00  1.6485282686897273e-01  3.8028191488985147e-01  8.3326064258688792e-01  1.6775337525968245e-01  8.1951328475859753e-01  2.5908491685391671e-01  1.6821132365053171e-01  1.6362011314071923e-01  1.6778275690082403e-01  7.5725558532788073e-01  1.2238757505079263e+00  8.2939503978433360e-01  1.6860912533704508e-01  1.6112119879352610e-01  9.4606243484235963e-01  6.0380846185440329e-01  1.1525092896537352e+00  6.7192997696002643e-01  6.2621759498296758e-01  1.6479850962174897e-01  6.7286984636864189e-01  9.3211437476640224e-01  1.0747379164957021e+00  1.6461006815867424e-01  4.0348219062271462e-01  6.2378758999377126e-01  5.5693894575642233e-01  4.3242946243512542e-01  3.5670708866754602e-01  1.7153099642916947e-01  3.7071437127416701e-01  4.1435938830700830e-01  4.3664363189232602e-01  3.6402910532529192e-01  9.7264057408419502e-01  3.6514886759028392e-01  1.1239896076401745e+00  7.0774766449431314e-01  7.5677247704269934e-01  5.5462380077727291e-01  5.1389587048483820e-01  2.1236142639405350e-01  9.8192659369585533e-01  6.8715797146335955e-01  4.2481050757760780e-01  3.9394635315880400e-01  5.9384037467230832e-01  1.2069688621342931e+00  7.0025904742205847e-01  4.3191348327687051e-01  5.8679445203403746e-01  1.0373531772561990e+00  1.6389490840831991e-01  1.5614605641136264e-01  7.6566935253816060e-01  8.3647379676854161e-01  7.8287668152006440e-01  1.5986979977959181e-01  1.0644040008169788e+00  1.1677136241113857e+00  7.7081714961853698e-01  5.5085974969707863e-01  3.7385151634470809e-01  1.1164419290302259e+00  1.1733015109742193e+00  5.2997707706309183e-01  9.1094710357654818e-01  3.3199735169244760e-01  1.5876513788964147e-01  8.1562747688077397e-01  1.5114781420111065e-01  1.0872860402700395e+00  6.6982378642448148e-01  9.6807868316210222e-01  1.0367895412177639e+00  9.5915051179598854e-01  1.0723016218451871e+00  7.7184941335562751e-01  1.5360009319461668e-01  1.5550548257516097e-01  1.5843822203327906e-01  4.5006229942196696e-01  3.7954445208269383e-01  7.1414277142211580e-01  4.9860286374741020e-01  3.5104694507426670e-01  1.5541637995052587e-01  1.1808204549754129e+00  5.0267069530706843e-01  5.6121107425968697e-01  1.1459318007161521e+00  4.5416435722901682e-01  9.0144557335124165e-01  1.0653677916929738e+00  1.4735461935748381e-01  9.8493481933625915e-01  4.5742522847369893e-01  1.1540516133645740e+00  1.2000996620737712e+00  3.3295259125623505e-01  3.5288424239573868e-01  1.6115566842869400e-01  9.4499596641015993e-01  1.4396578903609808e-01  8.1399004439318534e-01  1.0561504515817524e+00  9.6834994553688658e-01  8.7738594210230181e-01  6.3000035725120918e-01  3.2548731711835427e-01  5.7938004652746378e-01  1.5063713512981247e-01  6.2583386613383074e-01  7.3202031758740227e-01  8.5155589755362304e-01  8.6854150387658702e-01  7.7807232664373227e-01  5.0923404177950993e-01  5.8577637288019790e-01  6.4614506070204492e-01  3.2324619219089851e-01  1.0874431071481216e+00  1.4211110621568382e-01  1.1313167874178223e+00  8.7732942779061962e-01  7.2073276203831871e-01  7.6214520179158929e-01  8.1248138020593330e-01  8.6987835851038631e-01  6.3952028558914531e-01  1.0719483947932373e+00  1.1520888655091603e+00  5.2985122028954723e-01  1.4550274044402867e-01  9.6538452216625037e-01  3.3449273195117707e-01  8.8242008964727270e-01  1.0873413115458304e+00  5.3315914446736867e-01  1.1232354167552732e+00  1.1813388520499659e+00  6.5090263327484055e-01  1.0236841565316428e+00  6.0378452098080315e-01  6.4576092648830841e-01  5.1555155243832695e-01  7.1363811471103300e-01  6.3581021119060044e-01  9.2737397128293020e-01  1.4813146693675341e-01  9.8307530976670354e-01  3.6293232652178220e-01  6.0080589672913465e-01  8.4192476760779333e-01  1.4809343408146600e-01  3.4290412795112835e-01  1.1783654637151926e+00  4.2823005882210