<?xml version="1.0"?>
<VTKFile type="UnstructuredGrid"  version="0.1"  >
<UnstructuredGrid>
<Piece  NumberOfPoints="3243" NumberOfCells="6301">
<Points>
<DataArray  type="Float64"  NumberOfComponents="3"  format="ascii">1 0 0  0.9987569212189223 0.04984588566069716 0  0.9950307753654014 0.09956784659581666 0  0.9888308262251285 0.1490422661761744 0  0.9801724878485438 0.1981461431993976 0  0.969077286229078 0.2467573976902936 0  0.9555728057861407 0.2947551744109042 0  0.9396926207859084 0.3420201433256687 0  0.9214762118704076 0.3884347962746947 0  0.9009688679024191 0.4338837391175581 0  0.8782215733702285 0.4782539786213182 0  0.8532908816321557 0.521435203379498 0  0.8262387743159949 0.5633200580636221 0  0.7971325072229225 0.6038044103254774 0  0.766044443118978 0.6427876096865393 0  0.7330518718298263 0.6801727377709194 0  0.6982368180860729 0.7158668492597184 0  0.6616858375968594 0.7497812029677342 0  0.6234898018587336 0.7818314824680298 0  0.58374367223479 0.8119380057158565 0  0.5425462638657594 0.8400259231507714 0  0.4999999999999999 0.8660254037844387 0  0.4562106573531631 0.8898718088114685 0  0.4112871031306117 0.9115058523116731 0  0.365341024366395 0.9308737486442042 0  0.3184866502516844 0.9479273461671317 0  0.2708404681430052 0.962624246950012 0  0.2225209339563144 0.9749279121818236 0  0.1736481776669304 0.984807753012208 0  0.1243437046474853 0.9922392066001721 0  0.07473009358642439 0.9972037971811801 0  0.02493069173807303 0.9996891820008162 0  -0.02493069173807291 0.9996891820008162 0  -0.07473009358642427 0.9972037971811801 0  -0.1243437046474852 0.9922392066001721 0  -0.1736481776669303 0.984807753012208 0  -0.2225209339563143 0.9749279121818236 0  -0.270840468143005 0.9626242469500121 0  -0.3184866502516843 0.9479273461671318 0  -0.3653410243663949 0.9308737486442044 0  -0.4112871031306114 0.9115058523116732 0  -0.4562106573531626 0.8898718088114688 0  -0.5000000000000002 0.8660254037844385 0  -0.5425462638657593 0.8400259231507715 0  -0.5837436722347896 0.8119380057158566 0  -0.6234898018587335 0.7818314824680299 0  -0.6616858375968592 0.7497812029677344 0  -0.6982368180860727 0.7158668492597186 0  -0.7330518718298263 0.6801727377709194 0  -0.7660444431189779 0.6427876096865395 0  -0.7971325072229225 0.6038044103254774 0  -0.8262387743159947 0.5633200580636223 0  -0.8532908816321556 0.5214352033794981 0  -0.8782215733702287 0.4782539786213181 0  -0.900968867902419 0.4338837391175582 0  -0.9214762118704077 0.3884347962746946 0  -0.9396926207859083 0.3420201433256689 0  -0.9555728057861406 0.2947551744109046 0  -0.9690772862290778 0.2467573976902938 0  -0.9801724878485438 0.1981461431993976 0  -0.9888308262251285 0.1490422661761747 0  -0.9950307753654014 0.09956784659581673 0  -0.9987569212189223 0.04984588566069748 0  -1 1.224646799147353e-16 0  -0.9987569212189223 -0.04984588566069723 0  -0.9950307753654014 -0.09956784659581648 0  -0.9888308262251285 -0.1490422661761745 0  -0.9801724878485439 -0.1981461431993974 0  -0.969077286229078 -0.2467573976902936 0  -0.9555728057861408 -0.2947551744109039 0  -0.9396926207859084 -0.3420201433256687 0  -0.9214762118704076 -0.3884347962746948 0  -0.9009688679024191 -0.433883739117558 0  -0.8782215733702288 -0.4782539786213179 0  -0.8532908816321557 -0.5214352033794979 0  -0.8262387743159949 -0.5633200580636221 0  -0.7971325072229226 -0.6038044103254772 0  -0.766044443118978 -0.6427876096865393 0  -0.7330518718298266 -0.6801727377709191 0  -0.6982368180860729 -0.7158668492597183 0  -0.6616858375968597 -0.749781202967734 0  -0.6234898018587337 -0.7818314824680297 0  -0.5837436722347905 -0.8119380057158559 0  -0.5425462638657592 -0.8400259231507715 0  -0.4999999999999996 -0.8660254037844388 0  -0.4562106573531632 -0.8898718088114684 0  -0.4112871031306116 -0.9115058523116731 0  -0.3653410243663957 -0.930873748644204 0  -0.318486650251685 -0.9479273461671316 0  -0.2708404681430046 -0.9626242469500123 0  -0.2225209339563146 -0.9749279121818236 0  -0.1736481776669303 -0.984807753012208 0  -0.1243437046474858 -0.992239206600172 0  -0.07473009358642473 -0.9972037971811801 0  -0.02493069173807316 -0.9996891820008162 0  0.02493069173807279 -0.9996891820008162 0  0.07473009358642436 -0.9972037971811801 0  0.1243437046474846 -0.9922392066001722 0  0.17364817766693 -0.9848077530122081 0  0.2225209339563142 -0.9749279121818236 0  0.2708404681430051 -0.962624246950012 0  0.3184866502516846 -0.9479273461671317 0  0.3653410243663945 -0.9308737486442045 0  0.4112871031306113 -0.9115058523116732 0  0.4562106573531629 -0.8898718088114687 0  0.5000000000000001 -0.8660254037844386 0  0.5425462638657597 -0.8400259231507713 0  0.5837436722347895 -0.8119380057158567 0  0.6234898018587334 -0.7818314824680299 0  0.6616858375968587 -0.7497812029677348 0  0.698236818086073 -0.7158668492597183 0  0.7330518718298266 -0.6801727377709191 0  0.7660444431189778 -0.6427876096865396 0  0.7971325072229224 -0.6038044103254775 0  0.8262387743159945 -0.5633200580636227 0  0.8532908816321558 -0.5214352033794979 0  0.8782215733702283 -0.4782539786213186 0  0.900968867902419 -0.4338837391175583 0  0.9214762118704076 -0.3884347962746947 0  0.9396926207859081 -0.3420201433256694 0  0.9555728057861406 -0.2947551744109047 0  0.9690772862290778 -0.246757397690294 0  0.9801724878485438 -0.1981461431993977 0  0.9888308262251285 -0.1490422661761744 0  0.9950307753654013 -0.09956784659581729 0  0.9987569212189223 -0.0498458856606976 0  0 -1.110223024625157e-16 0  -0.4060952245631048 0.2919625833433866 0  0.07454430279913359 0.4945691341012836 0  -0.3214937308814528 -0.3831413087744865 0  0.4060952245631052 -0.2919625833433861 0  0.4673719130775488 0.1970137823441975 0  0.07065575168974669 -0.5638195129952732 0  -0.5876518183134565 -0.07364232701738999 0  -0.2541979963622033 0.6030288969972762 0  0.4076207702370422 0.5262112245891383 0  0.6613130009878312 -0.07561785461588438 0  -0.2877924882763663 -0.08496671912316978 0  0.1122523041955583 -0.2722698749696852 0  -0.2136446684141768 -0.6649681138278456 0  0.3711239967993034 -0.5916870927688695 0  -0.6811618247539664 0.2288582017624023 0  -0.6036259983084502 -0.3898630043774365 0  -0.1519565356019055 0.3604834946258824 0  0.2223728889826192 0.7073349201016491 0  -0.5313477807263849 0.5182619981567066 0  0.6605018953341746 -0.3386195639300833 0  0.2873299503248539 -0.02875169806262802 0  0.1874625299482133 0.2355619893962034 0  0.7230148253408941 0.1735722145348512 0  -0.4549609197086589 -0.5957654959402137 0  -0.03463157487303079 0.7407085179683447 0  0.6291441987588993 0.406976916748466 0  -0.2289589159049669 0.1405285933300958 0  -0.08807616397075169 -0.392430403720013 0  0.205296612242771 -0.7458798537797463 0  -0.7547001834030465 -0.2123397074488059 0  -0.7837591992851975 0.01954573416024249 0  -0.01646532341657923 -0.7690653170628658 0  -0.4352401762958623 0.07855348178493107 0  0.2338185418859718 -0.4383564083763345 0  -0.4660907991281192 -0.2382969082541435 0  -0.07353959542582791 -0.189593951033018 0  -0.01634378184019994 0.2053797911459911 0  0.5767924862461576 -0.5348822709432305 0  0.4676013569319232 -0.1058100506567658 0  -0.4227737526629002 0.6918385751529503 0  0.3451218286438238 0.3448460222806342 0  -0.2417662837479932 0.783787041456639 0  0.7894336726564478 -0.2075150882455891 0  0.429437930868693 0.7027440193188219 0  0.5795530210908955 0.5802417886451888 0  0.818250434369694 0.01775696154863614 0  -0.09722442279153222 0.5263769109750763 0  -0.3089301091725765 0.4371354806480824 0  -0.7090524339547675 0.409371613613344 0  0.2438561876582929 0.4811936910778122 0  0.5432018434834983 0.04565923381603147 0  -0.3666591398357442 -0.7431965258712754 0  -0.5618207183878967 0.3397086085210991 0  -0.6185121444690291 -0.5572316488307958 0  -0.5977938369819751 0.08892586939414393 0  -0.2319369917805521 -0.2422716374480734 0  -0.2088517301748016 -0.8202123616008853 0  0.3674245052370875 -0.7539747860075445 0  0.5048967506413504 -0.6753011662259081 0  0.06820072641026245 0.3376857440261995 0  0.5825625451404475 -0.2068770910951368 0  -0.2093208387955752 -0.5017643152297908 0  0.4421364691493548 -0.4480702397503655 0  -0.06721994241050155 -0.6264082819342098 0  0.2198456810463068 -0.5890117939449101 0  0.1072482179998102 0.8270400658162729 0  0.101706945347264 0.1114338704246025 0  -0.826215081689274 0.1701570551503884 0  -0.7559016678791552 -0.3875281735895096 0  -0.1403081793782837 -0.05463656608767534 0  -0.4381435912761569 -0.0904638073416138 0  0.2648585596196462 -0.1972910845697012 0  0.1356675309518404 -0.09429826762197367 0  0.08800287638571841 -0.4175523043917539 0  0.772184265774069 0.3484228092971817 0  0.4820585818083429 0.3991084987153591 0  -0.6096551968804708 -0.2170872236035365 0  0.3980609174667186 0.06761537960865138 0  0.2429849976623634 0.1055167835565284 0  -0.4627258547488082 -0.3795349891758816 0  -0.5092671392521492 0.1973579212248526 0  0.7098874552164247 -0.4756664543534329 0  -0.3872144293666887 0.5549387157286028 0  0.007479912798405555 0.612104857903693 0  -0.1106088318060157 0.07657058882501411 0  -0.08645511997809778 0.8639888077054165 0  0.8546013271693483 0.1469869706377941 0  -0.7957961633846122 0.3035577340122536 0  -0.6516041046685823 0.5750440342764058 0  0.7950924905082843 -0.342029907248517 0  -0.8517730591837042 -0.1067410126442437 0  0.3279509223104274 0.7972989472436024 0  0.5615550327388615 0.2917503018191212 0  0.1039924397968217 -0.8490717333777242 0  -0.274352362125688 0.3088893272147279 0  -0.3199998995660726 -0.5804912223174621 0  0.3315659806484027 0.2091724322371269 0  -0.1325896474512148 0.6530104098458814 0  0.1376376998738423 0.6084703306290548 0  0.3241561268038429 0.6261409266958099 0  0.6961548279354922 0.5198857607104763 0  0.5313120496018447 -0.3261229251073059 0  -0.4541049825189052 0.4132022653064708 0  -0.544101644468135 0.646985081491446 0  0.5933756450024116 0.1654697377387106 0  0.6936465783424133 0.04861005800032081 0  0.1936093818855595 0.3634402114305412 0  -0.4937059030800814 
[...]
<PointData  Scalars="velocity-6"> 
<DataArray  type="Float64"  Name="velocity-6"  format="ascii">0.0000000000000000e+00  0.0000000000000000e+00  0.0000000000000000e+00  0.0000000000000000e+00  0.0000000000000000e+00  0.0000000000000000e+00  0.0000000000000000e+00  0.0000000000000000e+00  0.0000000000000000e+00  0.0000000000000000e+00  0.0000000000000000e+00  0.0000000000000000e+00  0.0000000000000000e+00  0.0000000000000000e+00  0.0000000000000000e+00  0.0000000000000000e+00  0.0000000000000000e+00  0.0000000000000000e+00  0.0000000000000000e+00  0.0000000000000000e+00  0.0000000000000000e+00  0.0000000000000000e+00  0.0000000000000000e+00  0.0000000000000000e+00  0.0000000000000000e+00  0.0000000000000000e+00  0.0000000000000000e+00  0.0000000000000000e+00  0.0000000000000000e+00  0.0000000000000000e+00  0.0000000000000000e+00  0.0000000000000000e+00  0.0000000000000000e+00  0.0000000000000000e+00  0.0000000000000000e+00  0.0000000000000000e+00  0.0000000000000000e+00  0.0000000000000000e+00  0.0000000000000000e+00  0.0000000000000000e+00  0.0000000000000000e+00  0.0000000000000000e+00  0.0000000000000000e+00  0.0000000000000000e+00  0.0000000000000000e+00  0.0000000000000000e+00  0.0000000000000000e+00  0.0000000000000000e+00  0.0000000000000000e+00  0.0000000000000000e+00  0.0000000000000000e+00  0.0000000000000000e+00  0.0000000000000000e+00  0.0000000000000000e+00  0.0000000000000000e+00  0.0000000000000000e+00  0.0000000000000000e+00  0.0000000000000000e+00  0.0000000000000000e+00  0.0000000000000000e+00  0.0000000000000000e+00  0.0000000000000000e+00  0.0000000000000000e+00  0.0000000000000000e+00  0.0000000000000000e+00  0.0000000000000000e+00  0.0000000000000000e+00  0.0000000000000000e+00  0.0000000000000000e+00  0.0000000000000000e+00  0.0000000000000000e+00  0.0000000000000000e+00  0.0000000000000000e+00  0.0000000000000000e+00  0.0000000000000000e+00  0.0000000000000000e+00  0.0000000000000000e+00  0.0000000000000000e+00  0.0000000000000000e+00  0.0000000000000000e+00  0.0000000000000000e+00  0.0000000000000000e+00  0.0000000000000000e+00  0.0000000000000000e+00  0.0000000000000000e+00  0.0000000000000000e+00  0.0000000000000000e+00  0.0000000000000000e+00  0.0000000000000000e+00  0.0000000000000000e+00  0.0000000000000000e+00  0.0000000000000000e+00  0.0000000000000000e+00  0.0000000000000000e+00  0.0000000000000000e+00  0.0000000000000000e+00  0.0000000000000000e+00  0.0000000000000000e+00  0.0000000000000000e+00  0.0000000000000000e+00  0.0000000000000000e+00  0.0000000000000000e+00  0.0000000000000000e+00  0.0000000000000000e+00  0.0000000000000000e+00  0.0000000000000000e+00  0.0000000000000000e+00  0.0000000000000000e+00  0.0000000000000000e+00  0.0000000000000000e+00  0.0000000000000000e+00  0.0000000000000000e+00  0.0000000000000000e+00  0.0000000000000000e+00  0.0000000000000000e+00  0.0000000000000000e+00  0.0000000000000000e+00  0.0000000000000000e+00  0.0000000000000000e+00  0.0000000000000000e+00  0.0000000000000000e+00  0.0000000000000000e+00  0.0000000000000000e+00  0.0000000000000000e+00  0.0000000000000000e+00  0.0000000000000000e+00  3.6638452425368795e-01  2.7137385404502967e-01  2.7139607994325016e-01  2.7142870278106729e-01  2.7142372382639929e-01  2.6877854240092436e-01  2.4417614907419014e-01  2.3367478213954754e-01  2.0504500972041576e-01  1.9961719543855233e-01  1.9962531524778218e-01  3.3199824675177975e-01  3.3332286473069428e-01  1.8312189284111918e-01  1.8310882863726191e-01  1.7268738324688285e-01  1.7259479948436687e-01  3.0814046796833094e-01  1.6044762860755801e-01  1.6010815369133011e-01  1.6000981933828548e-01  3.3439945933980830e-01  3.3186024987593438e-01  1.5934966407276166e-01  1.5602823215871139e-01  1.6047176264943730e-01  1.5620399367413071e-01  3.3879157223181311e-01  3.0477436844815864e-01  1.4273486050686066e-01  1.3685519341378094e-01  1.3680909792428339e-01  1.4507132061308689e-01  2.9202338173455611e-01  2.7269253501091845e-01  2.6236713902664949e-01  3.5068655306774804e-01  3.5015981315144573e-01  1.3536329688124982e-01  2.7904426985418956e-01  1.2144204667924495e-01  2.7596339050285584e-01  1.1586868744036208e-01  1.1826513005172626e-01  1.1384235464539608e-01  1.1582120583929405e-01  1.1690587453163455e-01  2.5777788076723329e-01  2.5774115027094308e-01  1.1667842112100160e-01  2.5608085967711841e-01  2.5380769440808948e-01  1.1075200134427178e-01  2.0408265347190549e-01  1.0858219666084586e-01  2.2836579167602786e-01  3.2357242568503436e-01  1.0020961789073703e-01  1.0471969530836707e-01  1.0204857806773014e-01  3.2118550258147122e-01  2.2221829374085691e-01  2.5439102361771182e-01  2.1693304203084138e-01  2.1664375919171536e-01  2.1735188326771565e-01  1.0767992148067555e-01  3.5772688231597294e-01  1.0189000764518925e-01  9.8288176966546861e-02  3.5767370300569973e-01  2.9023278065939567e-01  3.2472948422794279e-01  3.5606389094588969e-01  2.9707317790431859e-01  9.9708664695216553e-02  2.1862913915489410e-01  2.0850419697413822e-01  3.0431960155468324e-01  3.3955730696697162e-01  2.3105950395412592e-01  2.5343597062460438e-01  9.5264598459282701e-02  1.9419185271873327e-01  2.2496767552171390e-01  3.5949011004443399e-01  8.6643678763435025e-02  8.7435721742252587e-02  9.6892686595807145e-02  8.6257275421572646e-02  8.8488379555192079e-02  9.2864740489213796e-02  9.0531334271076930e-02  2.1541147387981005e-01  9.4730190375502898e-02  3.0152301941236387e-01  2.0100098370549824e-01  3.0782784599914775e-01  1.9929537935108679e-01  2.1956970694106509e-01  1.7971193010472955e-01  8.6376798640169283e-02  2.1972310167742129e-01  2.2415986769691032e-01  1.0076262115388857e-01  2.2321068797367682e-01  1.8468671830881569e-01  3.0186332811707761e-01  8.4258065899129875e-02  2.9886180907563781e-01  8.1429574899909846e-02  2.1978263658553179e-01  3.0867560009105388e-01  1.7565102025852988e-01  3.0568562406013350e-01  2.6869948963788537e-01  1.7129725490545455e-01  3.2488770609564488e-01  3.0150140341237280e-01  1.7052922890400710e-01  3.4549776327355691e-01  3.3806912939080924e-01  3.0740589425020293e-01  8.4634075869465017e-02  7.8143676475445928e-02  3.5422611003073279e-01  2.5648352375827199e-01  3.5393182278855473e-01  1.9611327529347300e-01  2.6495359525398154e-01  7.6974094088583730e-02  7.4658918297281787e-02  1.5892370663786340e-01  1.5528427065624303e-01  9.9468125908270977e-02  2.9943282893562062e-01  1.6425801130097029e-01  1.6933185489378755e-01  3.1525192759979298e-01  8.0880567002096143e-02  1.1249142210691671e-01  1.6476042802846161e-01  7.4613868397509150e-02  7.5949885909050788e-02  2.6982368524827854e-01  3.2841243183855379e-01  2.0120511438523683e-01  3.2911699637700537e-01  1.6995684280290832e-01  1.6927617076941578e-01  1.3772194668019008e-01  7.7755981108053721e-02  3.4584171965643346e-01  1.5718317508568172e-01  1.7753144020422187e-01  1.4522893401865641e-01  3.6240634686862627e-01  3.4612328376477686e-01  2.3095616482794629e-01  2.6328738849793315e-01  1.6649278512356711e-01  2.6228643047879624e-01  2.7275303669820694e-01  2.2053319076717537e-01  2.5184822056913503e-01  7.3766630721923659e-02  3.6240832753936453e-01  1.4796287325270521e-01  2.5817996850683428e-01  2.0362065476144048e-01  6.6125970209745408e-02  7.2358116700806219e-02  2.4026129194482596e-01  3.0769547176717638e-01  3.2601826378539833e-01  1.4363579480585492e-01  8.2064449820183447e-02  6.3069796967225436e-02  6.5478796955458343e-02  9.0601733878013638e-02  6.7818651622277515e-02  6.9491740458404880e-02  2.4641676889160569e-01  3.0682523045653592e-01  6.6449681423699683e-02  1.5354927214515515e-01  6.6294994715479102e-02  6.1955813571131495e-02  6.6283405735964987e-02  6.1568187751863672e-02  2.2789577108944811e-01  2.0420347152368676e-01  2.4671007976917328e-01  1.7008504085867013e-01  6.0589273002489639e-02  1.4708096325818296e-01  5.9781062026236613e-02  6.2923678789910634e-02  1.6415811802286415e-01  1.4052063322180308e-01  6.3912702457674775e-02  1.4832356649779427e-01  6.0463539985692809e-02  6.1419408144364238e-02  3.6321716519503150e-01  5.8557681123918619e-02  6.1257649726819179e-02  2.9331405111745523e-01  3.4647132181312496e-01  2.2026265296284867e-01  6.4972310972416278e-02  2.9835703028604521e-01  2.8042674426601011e-01  3.2417184983260000e-01  3.4373817000799828e-01  1.3244902382570239e-01  2.1781084866810460e-01  2.8337627173577840e-01  2.6910500519490005e-01  2.8810970089590426e-01  2.6028543492800954e-01  2.3036297377975407e-01  2.3083200583910021e-01  3.2589125311779532e-01  3.0081364891184159e-01  2.7934633803759618e-01  5.6484338487737429e-02  1.3085399307702586e-01  1.6743504956519603e-01  1.4118095362067790e-01  2.9816854619622668e-01  2.7488892883908128e-01  2.7904127334699919e-01  1.2737581931709502e-01  2.5905774852175550e-01  2.2163121536839842e-01  5.8445412152567496e-02  6.2757345872926126e-02  5.7727797408372729e-02  1.4027539757901550e-01  5.7030641955943089e-02  3.2816832006768576e-01  1.4466390576038396e-01  2.1942036627596834e-01  2.4754850637087469e-01  1.1375919750309001e-01  2.0271193489021838e-01  3.6352149609680579e-01  1.0804061202354522e-01  5.2687656447991248e-02  3.4364175391930685e-01  2.1510141394592436e-01  5.6558357223484054e-02  5.6564850156749377e-02  2.6295682950662036e-01  2.3772172635521543e-01  2.2031263071024298e-01  5.5084948698168178e-02  1.4565733207487006e-01  2.1487520002678284e-01  1.8043930774894926e-01  1.8711671411596245e-01  1.2362528097978207e-01  3.2996029712016656e-01  2.4782923721554681e-01  1.8026429016132864e-01  3.1949935432503479e-01  3.5324618716960660e-01  1.1628801105975078e-01  5.4827301593396646e-02  2.7443286520999993e-01  2.8469133486386827e-01  2.3797846488638005e-01  1.4665119341020560e-01  1.2584246446733113e-01  7.6451587152238556e-02  1.8229966030529970e-01  2.9577275859476210e-01  2.9919819977945356e-01  3.3855329916515187e-01  3.2407227062099297e-01  1.1108439109610120e-01  1.9726529821149424e-01  1.1920139115532107e-01  1.4410947422589149e-01  3.3145837766532882e-01  1.4851047382018773e-01  5.4102168638982186e-02  1.3891998454109658e-01  5.2007597007304014e-02  2.9912824224733203e-01  1.7008348222359310e-01  7.0266484191714940e-02  1.1784952894669661e-01  2.0013309087659090e-01  1.9618056794263736e-01  2.3289710794353760e-01  5.3574451713030095e-02  1.3664910566196220e-01  3.2010729154507406e-01  1.1295705333261002e-01  4.9954746361222865e-02  4.8825410652504862e-02  1.7258047878109778e-01  2.3595913194546364e-01  1.9586353828472894e-01  1.8408766436701798e-01  2.3363982082361603e-01  1.9974214765260073e-01  2.7502615744486381e-01  2.1744440454752192e-01  5.3505322221824497e-02  3.4683864809047249e-01  3.6418231602622569e-01  3.5722620534830257e-01  3.4725478288281048e-01  3.1346075092372228e-01  2.8692235654016918e-01  2.6402198380618191e-01  1.2464220625678125e-01  2.4476276834515082e-01  4.7873727006607081e-02  5.2206944540421199e-02  1.3337531043902118e-01  7.4243961653193982e-02  3.5660524280422295e-01  5.0595351724273596e-02  1.7882642218272257e-01  1.9667181371160875e-01  2.4847855266966654e-01  2.0892116891498513e-01  3.1703627535143281e-01  5.4166364843606638e-02  1.3005402252607079e-01  2.8111589192097375e-01  3.2870433442076608e-01  1.9975915677528000e-01  5.0871730875090650e-02  4.8524697280062146e-02  1.2918818407920785e-01  2.3733560543944399e-01  1.7128784569999811e-01  1.2008139313585638e-01  1.2660543809185584e-01  3.0250996261383695e-01  4.8898561274250338e-02  6.9063677926464589e-02  2.2862873977789369e-01  1.4163182724494430e-01  1.3309335137529379e-01  1.3261713048559481e-01  5.1124315783273123e-02  3.3683096972803067e-01  2.8548640348084392e-01  1.8846618664074372e-01  1.4175409945034534e-01  2.5051517532991996e-01  3.0354977093255570e-01  1.0818263348380597e-01  4.8064002448419650e-02  2.5136158644384921e-01  4.5674755617780401e-02  3.5242916129441393e-01  4.8688837099380655e-02  2.4732778840886893e-01  2.5409101788416250e-01  1.9780358296393927e-01  2.8875071589234358e-01  1.7595783687655758e-01  1.2266427986972801e-01  4.5927899700355934e-02  2.5615187199382677e-01  1.8861616320024116e-01  2.5116333258220302e-01  3.4587828797191361e-01  1.0932791027486408e-01  2.1160701231778453e-01  1.3956887627025638e-01  1.2566738619612552e-01  2.9437634383979638e-01  2.5478569523335914e-01  4.7191514457787118e-02  3.2426904205170526e-01  2.9558215535236404e-01  3.1010150822124327e-01  2.2921332050189736e-01  3.2698858758286459e-01  4.8442599353558102e-02  1.2043485215538588e-01  1.6590581540542179e-01  1.0404419098123363e-01  1.0675243699688020e-01  1.8705737791937294e-01  1.1103855941310489e-01  2.1182892337539844e-01  2.4401431587187236e-01  5.2973488505788417e-02  3.3177559502057413e-01  1.8954166645772302e-01  1.9224789297169578e-01  1.0239368183320219e-01  1.7107526370443996e-01  1.2190957488097527e-01  2.4608116636857769e-01  1.8503258956344490e-01  2.1137680250098073e-01  2.8762541646422946e-01  9.9701252695096484e-02  3.5086534054962581e-01  3.5618846346512056e-01  3.6464108555677016e-01  4.4672113189838152e-02  6.7889301655816581e-02  4.6756257462949598e-02  9.4748961555969721e-02  2.4673049289587556e-01  1.6954004970130856e-01  2.2897177025745832e-01  2.4257980935770834e-01  4.4727043702796725e-02  2.8582557900929417e-01  3.1815395524715068e-01  2.7912327065321840e-01  1.6748840712689711e-01  9.8713820381795853e-02  4.2722239433084584e-02  5.3767447286455473e-02  4.6207922797167483e-02  1.8971517304846508e-01  2.8900320784566830e-01  3.4078355048388198e-01  4.4752467835547510e-02  1.9188870276019016e-01  1.4799656311040768e-01  4.4772672285349473e-02  2.3190648615541332e-01  2.5073677742927941e-01  1.8667550965114529e-01  1.1065384833511142e-01  1.6241312039282152e-01  3.6480428660518777e-01  1.1257425096456065e-01  2.0392023125287403e-01  1.6602973668664422e-01  1.7227605996236847e-01  1.2547793454695319e-01  4.2328000527361069e-02  1.5322885734583672e-01  3.0459455853039902e-01  2.8052526270757838e-01  3.1147112027959895e-01  1.0477809484326049e-01  3.4490840738483386e-01  2.0178664388174361e-01  4.4290363266746215e-02  2.2983513389645913e-01  3.1783425888865280e-01  2.8038635803083256e-01  3.9869630707454078e-02  2.8233298315734401e-01  1.5320482481477904e-01  1.5774122345894090e-01  4.4609677139811295e-02  3.2187333622984721e-01  1.9781821783978285e-01  2.8471132644459535e-01  3.1431079387929928e-01  3.1862495366527704e-01  1.7353113425025488e-01  4.2218557753135114e-02  1.0027394650695209e-01  4.3624738035959419e-02  2.0193647904777565e-01  3.2452061526005438e-01  1.0810242184593316e-01  4.2395920381072344e-02  2.3854736729448672e-01  3.9966052492478088e-02  1.6664592815327184e-01  3.4060709692095448e-01  3.6137401751809262e-01  3.4465014260612836e-01  2.8754798943583776e-01  3.8609127887439920e-02  3.9603828839161331e-02  3.2053541650069595e-01  3.1766671559679549e-01  3.4020568460719791e-01  2.4687728856514490e-01  1.3260413662637388e-01  9.5972811219650039e-02  1.1590656821177092e-01  9.7632807108298220e-02  6.8640974456699796e-02  2.2057190673444993e-01  3.1771437802391006e-01  1.7198835200374096e-01  3.4378105709243439e-01  2.8546520508618600e-01  3.2009435627524868e-01  3.0819896288273047e-01  2.9273267564940270e-01  2.9354257575140580e-01  9.7024491372974753e-02  3.7498859254914453e-02  3.5821807325421601e-01  3.5336007220128846e-01  3.8312352622301662e-02  1.4312314083642641e-01  3.3967552642892962e-01  3.7234648313446958e-02  2.7434116761657473e-01  1.9074740190345826e-01  4.2993788263237527e-02  2.3070522995355947e-01  3.9247059468082053e-02  2.5151555622343580e-01  1.9039425222875289e-01  4.1074237262986354e-02  3.6230836827256280e-01  1.0044623165697243e-01  1.1087185651422560e-01  1.0616586440374697e-01  2.7102181461929264e-01  2.4920519816374800e-01  2.3318561805183299e-01  9.1299639992650353e-02  3.2996028362627849e-01  3.1260897378226188e-01  2.5230470220345330e-01  1.4849833145137506e-01  2.9728116592792159e-01  2.2628841407392503e-01  1.3292650033083053e-01  2.3151568297585229e-01  1.0550363216145925e-01  3.7213347438577647e-02  1.1051371403248886e-01  3.9647881316679914e-02  3.8043636084846483e-02  2.7965610803763574e-01  2.5558937100038648e-01  2.3189242277029742e-01  2.6345729057404643e-01  2.1250926387592278e-01  3.1556979149243108e-01  2.8059399521751893e-01  2.8251728330261866e-01  3.3504573168649637e-01  9.8321105233575512e-02  1.6654924597296047e-01  3.4477310699173758e-01  3.1783490691726601e-01  1.5782907899109494e-01  1.0782428349492786e-01  3.4649864898462196e-01  3.5516259792123855e-01  2.8195932809511876e-01  1.0598893326631054e-01  8.4960328151781034e-02  4.0082861271326382e-02  3.9894233515787171e-02  2.9467276224664579e-01  2.0821094835951839e-01  2.1702167720721355e-01  1.3528624771428913e-01  2.4721636810916847e-01  3.0987428636992564e-01  8.8016331809769088e-02  1.5883604747006713e-01  3.6353124177404168e-02  1.8683014131517231e-01  3.1196762180578608e-01  5.4801163833939792e-02  1.5564637788840674e-01  3.4422668495966861e-02  3.7185872253096663e-02  3.3372967020504940e-01  2.7679617360725500e-01  3.4026144852329415e-01  1.1369786227945003e-01  1.0048568857180760e-01  1.0275957327332434e-01  3.1468494194907182e-01  2.9459038428470169e-01  2.6221658809394854e-01  1.2098062899104228e-01  3.5195796373931137e-02  3.4072716635519855e-02  1.4210407824221816e-01  1.7790383237089930e-01  2.7281538996931359e-01  1.9596804523123088e-01  1.6693247964049573e-01  1.4034855705932600e-01  1.3471846049047509e-01  1.5488879567058295e-01  1.3226674782247627e-01  1.2965440883665699e-01  3.5057107989713560e-01  3.9530622611875114e-02  8.0023048703214611e-02  2.8352743896095262e-01  3.2555160268891248e-01  3.0306732661962266e-01  1.5088100855500147e-01  1.3941349127525857e-01  6.7974815386058984e-02  1.1873979066630271e-01  1.9142128318763471e-01  2.4245846167551013e-01  1.1697134737489397e-01  9.2181084295729895e-02  2.2422717136384152e-01  3.6120376343520239e-01  8.1498647512216471e-02  1.6990400608473416e-01  8.2324433744308367e-02  3.6478836631414567e-02  8.5929369235160105e-02  2.4033040875013817e-01  1.3768001914989580e-01  1.4389039811517854e-01  3.7933277479936953e-02  2.8841905788903527e-01  1.6774866972450092e-01  1.8208893332949902e-01  2.4921350522197219e-01  2.5117260735146679e-01  2.8460963657186272e-01  1.3859383874845943e-01  9.0331345487929510e-02  9.7356009595736342e-02  1.7411185358147430e-01  1.5040186661411209e-01  2.0064485678215488e-01  3.3833967272496174e-01  2.4713132897009532e-01  1.8137771954670248e-01  1.5122708979203289e-01  1.8685689715689477e-01  1.9776059747822186e-01  9.7981481414707791e-02  1.0088003197149072e-01  1.4552859635758542e-01  1.8516576233031218e-01  3.0762225631719919e-01  2.2128362547519506e-01  2.0618871635388900e-01  9.5341501487363658e-02  2.7941931227268080e-01  3.1143899700666100e-01  2.6828378319566021e-01  2.6760422414201612e-01  2.4376367994838233e-01  3.0059343814354894e-01  1.7252532276347557e-01  1.4142827982876022e-01  1.9431756277127710e-01  3.3538191268397029e-02  3.0474861527763675e-01  3.3959571046927900e-02  1.7544889097776434e-01  2.7023961997955559e-01  7.4714952066182172e-02  1.3393148941100874e-01  1.9183790401917572e-01  1.4122533804935813e-01  9.4060005461015561e-02  3.3565958338923857e-01  3.4727529019445647e-01  2.5822761119999565e-01  7.7257655906386488e-02  3.3560498221191015e-01  3.4522041606660205e-02  8.0231300982979079e-02  3.5547023083822876e-02  7.6699004616419653e-02  8.1544399285364416e-02  1.3864897178790095e-01  8.8489678063788768e-02  8.3788529631826605e-02  1.3476116890910791e-01  3.5838561678152742e-01  3.4362364339120814e-02  1.3713398046830597e-01  2.0675575282063186e-01  3.3087831768273436e-02  2.9426160982137012e-01  2.6665518236256752e-01  8.2074804930168221e-02  1.8995156148006923e-01  3.1711787641996204e-02  7.9102571819278947e-02  1.4612006176986556e-01  3.5312086131616749e-01  3.4974300867473279e-01  1.2982428598237861e-01  2.2674803594449933e-01  2.0965621832253289e-01  3.5995780442174707e-01  3.5717425358334148e-01  3.5305439643039982e-01  2.53355