<?xml version="1.0"?>
<VTKFile type="UnstructuredGrid"  version="0.1"  >
<UnstructuredGrid>
<Piece  NumberOfPoints="18071" NumberOfCells="35544">
<Points>
<DataArray  type="Float64"  NumberOfComponents="3"  format="ascii">0.9486832980505138 0 0  0.9484724340806782 0.02000104469955538 0  0.9478399359086995 0.03999319812908447 0  0.9467860847054931 0.0599675729710886 0  0.9453113489503684 0.07991528981136745 0  0.9434163842227721 0.09982748108627622 0  0.9411020329108563 0.119695295024715 0  0.938369323837003 0.1395098995830973 0  0.9352194718004709 0.1592624863715497 0  0.931653877037369 0.1789442745695953 0  0.9276741245981944 0.1985465148295827 0  0.9232819836432135 0.2180604931661231 0  0.9184794066559997 0.2374775348298079 0  0.9132685285754754 0.2567890081634844 0  0.9076516658468453 0.2759863284393749 0  0.9016313153918442 0.2950609616753339 0  0.8952101534987531 0.3140044284285474 0  0.8883910346326832 0.3328083075649862 0  0.8811769901666499 0.3514642400029395 0  0.873571227034005 0.3699639324289635 0  0.8655771263028276 0.3882991609845931 0  0.8571982416729006 0.4064617749221782 0  0.8484382978959503 0.4244437002282196 0  0.8393011891198424 0.4422369432125932 0  0.829790977157478 0.459833594062067 0  0.8199118896811526 0.477225830356532 0  0.8096683183431869 0.4944059205463824 0  0.7990648168236594 0.5113662273895018 0  0.7881060988061126 0.5280992113463244 0  0.7767970358821309 0.5445974339314641 0  0.7651426553857218 0.5608535610204205 0  0.753148138158463 0.5768603661098937 0  0.7408188162464108 0.5926107335302548 0  0.7281601705297891 0.6080976616087488 0  0.7151778282865192 0.6233142657820195 0  0.7018775606906669 0.6382537816565753 0  0.6882652802469232 0.652909568015835 0  0.6743470381622587 0.6672751097724156 0  0.6601290216559174 0.6813440208643511 0  0.6456175512089487 0.6951100470939552 0  0.6308190777544996 0.7085670689080622 0  0.6157401798101144 0.7217091041184169 0  0.6003875605533189 0.734530310560997 0  0.584768044841788 0.7470249886930909 0  0.5688885761794213 0.7591875841269735 0  0.5527562136296766 0.7710126900990562 0  0.5363781286775311 0.7824950498734097 0  0.5197616020414676 0.7936295590785962 0  0.5029140204369025 0.8044112679767674 0  0.4858428732924924 0.8148353836640227 0  0.4685557494207815 0.8248972722010478 0  0.4510603336446699 0.8345924606730875 0  0.4333644033811983 0.8439166391783361 0  0.4154758251841748 0.8528656627438631 0  0.3974025512471733 0.8614355531682203 0  0.379152615868464 0.8696225007899122 0  0.3607341318794444 0.8774228661809444 0  0.342155287038158 0.8848331817646961 0  0.3234243403895067 0.8918501533573969 0  0.3045496185937731 0.898470661632525 0  0.2855395122250832 0.904691763507473 0  0.2664024720414594 0.9105106934518669 0  0.2471470052281184 0.915924864716955 0  0.2277816716156831 0.9209318704855235 0  0.2083150798749952 0.925529484941822 0  0.1887558836902123 0.9297156642610294 0  0.1691127779118977 0.9334885475178156 0  0.1493944946918097 0.9368464575135985 0  0.1296097996011066 0.9397879015221259 0  0.1097674877336993 0.9423115719530522 0  0.08987637979647611 0.9444163469332154 0  0.06994531818814397 0.9461012908053551 0  0.04998316306842656 0.9473656545440494 0  0.02999878841936526 0.9482088760886865 0  0.01000107810047723 0.9486305805933245 0  -0.01000107810047732 0.9486305805933245 0  -0.02999878841936514 0.9482088760886865 0  -0.04998316306842644 0.9473656545440494 0  -0.06994531818814406 0.9461012908053551 0  -0.08987637979647599 0.9444163469332155 0  -0.1097674877336992 0.9423115719530522 0  -0.1296097996011065 0.9397879015221259 0  -0.1493944946918096 0.9368464575135985 0  -0.1691127779118979 0.9334885475178156 0  -0.1887558836902122 0.9297156642610294 0  -0.2083150798749951 0.925529484941822 0  -0.227781671615683 0.9209318704855235 0  -0.247147005228118 0.9159248647169551 0  -0.2664024720414591 0.9105106934518669 0  -0.2855395122250831 0.904691763507473 0  -0.3045496185937729 0.8984706616325251 0  -0.3234243403895066 0.8918501533573969 0  -0.3421552870381577 0.8848331817646962 0  -0.3607341318794441 0.8774228661809446 0  -0.3791526158684641 0.8696225007899122 0  -0.3974025512471734 0.8614355531682203 0  -0.4154758251841746 0.8528656627438632 0  -0.4333644033811984 0.8439166391783361 0  -0.4510603336446696 0.8345924606730876 0  -0.4685557494207815 0.8248972722010479 0  -0.4858428732924923 0.8148353836640227 0  -0.5029140204369026 0.8044112679767673 0  -0.5197616020414676 0.7936295590785962 0  -0.536378128677531 0.7824950498734098 0  -0.5527562136296768 0.7710126900990562 0  -0.5688885761794211 0.7591875841269737 0  -0.5847680448417879 0.747024988693091 0  -0.6003875605533187 0.7345303105609973 0  -0.6157401798101142 0.721709104118417 0  -0.6308190777544995 0.7085670689080623 0  -0.6456175512089487 0.6951100470939551 0  -0.6601290216559171 0.6813440208643513 0  -0.6743470381622587 0.6672751097724156 0  -0.688265280246923 0.6529095680158352 0  -0.7018775606906668 0.6382537816565753 0  -0.7151778282865192 0.6233142657820195 0  -0.7281601705297891 0.6080976616087488 0  -0.7408188162464107 0.592610733530255 0  -0.753148138158463 0.5768603661098938 0  -0.7651426553857216 0.5608535610204208 0  -0.7767970358821308 0.5445974339314642 0  -0.7881060988061125 0.5280992113463245 0  -0.7990648168236594 0.5113662273895018 0  -0.8096683183431868 0.4944059205463825 0  -0.8199118896811526 0.477225830356532 0  -0.8297909771574777 0.4598335940620675 0  -0.8393011891198424 0.4422369432125932 0  -0.8484382978959502 0.4244437002282198 0  -0.8571982416729006 0.4064617749221782 0  -0.8655771263028273 0.3882991609845933 0  -0.873571227034005 0.3699639324289636 0  -0.8811769901666499 0.3514642400029395 0  -0.8883910346326833 0.332808307564986 0  -0.8952101534987531 0.3140044284285475 0  -0.9016313153918442 0.295060961675334 0  -0.9076516658468452 0.2759863284393752 0  -0.9132685285754755 0.2567890081634842 0  -0.9184794066559997 0.237477534829808 0  -0.9232819836432135 0.218060493166123 0  -0.9276741245981943 0.1985465148295829 0  -0.931653877037369 0.1789442745695954 0  -0.9352194718004709 0.15926248637155 0  -0.938369323837003 0.1395098995830971 0  -0.9411020329108563 0.1196952950247151 0  -0.9434163842227721 0.09982748108627618 0  -0.9453113489503684 0.07991528981136768 0  -0.9467860847054931 0.05996757297108869 0  -0.9478399359086995 0.03999319812908442 0  -0.9484724340806782 0.02000104469955522 0  -0.9486832980505138 1.161801964362116e-16 0  -0.9484724340806782 -0.02000104469955541 0  -0.9478399359086995 -0.0399931981290842 0  -0.9467860847054931 -0.05996757297108847 0  -0.9453113489503684 -0.07991528981136745 0  -0.9434163842227721 -0.09982748108627594 0  -0.9411020329108563 -0.1196952950247148 0  -0.938369323837003 -0.1395098995830973 0  -0.935219471800471 -0.1592624863715494 0  -0.9316538770373691 -0.1789442745695952 0  -0.9276741245981944 -0.1985465148295827 0  -0.9232819836432136 -0.2180604931661228 0  -0.9184794066559998 -0.2374775348298077 0  -0.9132685285754755 -0.256789008163484 0  -0.9076516658468454 -0.2759863284393745 0  -0.9016313153918442 -0.2950609616753337 0  -0.8952101534987533 -0.3140044284285469 0  -0.8883910346326832 -0.3328083075649862 0  -0.8811769901666497 -0.3514642400029397 0  -0.8735712270340051 -0.3699639324289634 0  -0.8655771263028275 -0.3882991609845931 0  -0.8571982416729007 -0.406461774922178 0  -0.8484382978959503 -0.4244437002282196 0  -0.8393011891198425 -0.4422369432125929 0  -0.8297909771574781 -0.4598335940620669 0  -0.8199118896811529 -0.4772258303565314 0  -0.8096683183431871 -0.494405920546382 0  -0.7990648168236597 -0.5113662273895012 0  -0.7881060988061124 -0.5280992113463246 0  -0.7767970358821309 -0.544597433931464 0  -0.7651426553857217 -0.5608535610204206 0  -0.7531481381584632 -0.5768603661098936 0  -0.7408188162464108 -0.5926107335302547 0  -0.7281601705297893 -0.6080976616087486 0  -0.7151778282865193 -0.6233142657820193 0  -0.7018775606906672 -0.638253781656575 0  -0.6882652802469235 -0.6529095680158347 0  -0.674347038162259 -0.6672751097724151 0  -0.660129021655917 -0.6813440208643514 0  -0.6456175512089486 -0.6951100470939552 0  -0.6308190777544994 -0.7085670689080624 0  -0.6157401798101141 -0.7217091041184172 0  -0.6003875605533191 -0.7345303105609969 0  -0.5847680448417881 -0.7470249886930909 0  -0.5688885761794213 -0.7591875841269736 0  -0.5527562136296765 -0.7710126900990563 0  -0.5363781286775317 -0.7824950498734093 0  -0.519761602041468 -0.7936295590785959 0  -0.5029140204369028 -0.8044112679767672 0  -0.4858428732924925 -0.8148353836640226 0  -0.4685557494207817 -0.8248972722010478 0  -0.4510603336446699 -0.8345924606730875 0  -0.4333644033811982 -0.8439166391783361 0  -0.4154758251841745 -0.8528656627438633 0  -0.3974025512471736 -0.8614355531682203 0  -0.3791526158684643 -0.8696225007899121 0  -0.3607341318794445 -0.8774228661809444 0  -0.342155287038158 -0.8848331817646962 0  -0.3234243403895075 -0.8918501533573966 0  -0.3045496185937727 -0.8984706616325251 0  -0.2855395122250827 -0.9046917635074732 0  -0.2664024720414597 -0.9105106934518667 0  -0.2471470052281185 -0.915924864716955 0  -0.2277816716156832 -0.9209318704855235 0  -0.2083150798749951 -0.925529484941822 0  -0.1887558836902128 -0.9297156642610293 0  -0.1691127779118983 -0.9334885475178155 0  -0.14939449469181 -0.9368464575135985 0  -0.1296097996011069 -0.9397879015221258 0  -0.1097674877336994 -0.942311571953052 0  -0.08987637979647602 -0.9444163469332154 0  -0.06994531818814387 -0.9461012908053551 0  -0.04998316306842625 -0.9473656545440494 0  -0.02999878841936558 -0.9482088760886865 0  -0.01000107810047755 -0.9486305805933245 0  0.0100010781004772 -0.9486305805933245 0  0.02999878841936524 -0.9482088760886865 0  0.04998316306842591 -0.9473656545440494 0  0.06994531818814352 -0.9461012908053552 0  0.08987637979647567 -0.9444163469332155 0  0.1097674877336991 -0.9423115719530522 0  0.1296097996011066 -0.9397879015221259 0  0.1493944946918097 -0.9368464575135985 0  0.1691127779118979 -0.9334885475178156 0  0.1887558836902125 -0.929715
[...]
<PointData  Scalars="f_29-2"> 
<DataArray  type="Float64"  Name="f_29-2"  format="ascii">0.0000000000000000e+00  0.0000000000000000e+00  0.0000000000000000e+00  0.0000000000000000e+00  0.0000000000000000e+00  0.0000000000000000e+00  0.0000000000000000e+00  0.0000000000000000e+00  0.0000000000000000e+00  0.0000000000000000e+00  0.0000000000000000e+00  0.0000000000000000e+00  0.0000000000000000e+00  0.0000000000000000e+00  0.0000000000000000e+00  0.0000000000000000e+00  0.0000000000000000e+00  0.0000000000000000e+00  0.0000000000000000e+00  0.0000000000000000e+00  0.0000000000000000e+00  0.0000000000000000e+00  0.0000000000000000e+00  0.0000000000000000e+00  0.0000000000000000e+00  0.0000000000000000e+00  0.0000000000000000e+00  0.0000000000000000e+00  0.0000000000000000e+00  0.0000000000000000e+00  0.0000000000000000e+00  0.0000000000000000e+00  0.0000000000000000e+00  0.0000000000000000e+00  0.0000000000000000e+00  0.0000000000000000e+00  0.0000000000000000e+00  0.0000000000000000e+00  0.0000000000000000e+00  0.0000000000000000e+00  0.0000000000000000e+00  0.0000000000000000e+00  0.0000000000000000e+00  0.0000000000000000e+00  0.0000000000000000e+00  0.0000000000000000e+00  0.0000000000000000e+00  0.0000000000000000e+00  0.0000000000000000e+00  0.0000000000000000e+00  0.0000000000000000e+00  0.0000000000000000e+00  0.0000000000000000e+00  0.0000000000000000e+00  0.0000000000000000e+00  0.0000000000000000e+00  0.0000000000000000e+00  0.0000000000000000e+00  0.0000000000000000e+00  0.0000000000000000e+00  0.0000000000000000e+00  0.0000000000000000e+00  0.0000000000000000e+00  0.0000000000000000e+00  0.0000000000000000e+00  0.0000000000000000e+00  0.0000000000000000e+00  0.0000000000000000e+00  0.0000000000000000e+00  0.0000000000000000e+00  0.0000000000000000e+00  0.0000000000000000e+00  0.0000000000000000e+00  0.0000000000000000e+00  0.0000000000000000e+00  0.0000000000000000e+00  0.0000000000000000e+00  0.0000000000000000e+00  0.0000000000000000e+00  0.0000000000000000e+00  0.0000000000000000e+00  0.0000000000000000e+00  0.0000000000000000e+00  0.0000000000000000e+00  0.0000000000000000e+00  0.0000000000000000e+00  0.0000000000000000e+00  0.0000000000000000e+00  0.0000000000000000e+00  0.0000000000000000e+00  0.0000000000000000e+00  0.0000000000000000e+00  0.0000000000000000e+00  0.0000000000000000e+00  0.0000000000000000e+00  0.0000000000000000e+00  0.0000000000000000e+00  0.0000000000000000e+00  0.0000000000000000e+00  0.0000000000000000e+00  0.0000000000000000e+00  0.0000000000000000e+00  0.0000000000000000e+00  0.0000000000000000e+00  0.0000000000000000e+00  0.0000000000000000e+00  0.0000000000000000e+00  0.0000000000000000e+00  0.0000000000000000e+00  0.0000000000000000e+00  0.0000000000000000e+00  0.0000000000000000e+00  0.0000000000000000e+00  0.0000000000000000e+00  0.0000000000000000e+00  0.0000000000000000e+00  0.0000000000000000e+00  0.0000000000000000e+00  0.0000000000000000e+00  0.0000000000000000e+00  0.0000000000000000e+00  0.0000000000000000e+00  0.0000000000000000e+00  0.0000000000000000e+00  0.0000000000000000e+00  0.0000000000000000e+00  0.0000000000000000e+00  0.0000000000000000e+00  0.0000000000000000e+00  0.0000000000000000e+00  0.0000000000000000e+00  0.0000000000000000e+00  0.0000000000000000e+00  0.0000000000000000e+00  0.0000000000000000e+00  0.0000000000000000e+00  0.0000000000000000e+00  0.0000000000000000e+00  0.0000000000000000e+00  0.0000000000000000e+00  0.0000000000000000e+00  0.0000000000000000e+00  0.0000000000000000e+00  0.0000000000000000e+00  0.0000000000000000e+00  0.0000000000000000e+00  0.0000000000000000e+00  0.0000000000000000e+00  0.0000000000000000e+00  0.0000000000000000e+00  0.0000000000000000e+00  0.0000000000000000e+00  0.0000000000000000e+00  0.0000000000000000e+00  0.0000000000000000e+00  0.0000000000000000e+00  0.0000000000000000e+00  0.0000000000000000e+00  0.0000000000000000e+00  0.0000000000000000e+00  0.0000000000000000e+00  0.0000000000000000e+00  0.0000000000000000e+00  0.0000000000000000e+00  0.0000000000000000e+00  0.0000000000000000e+00  0.0000000000000000e+00  0.0000000000000000e+00  0.0000000000000000e+00  0.0000000000000000e+00  0.0000000000000000e+00  0.0000000000000000e+00  0.0000000000000000e+00  0.0000000000000000e+00  0.0000000000000000e+00  0.0000000000000000e+00  0.0000000000000000e+00  0.0000000000000000e+00  0.0000000000000000e+00  0.0000000000000000e+00  0.0000000000000000e+00  0.0000000000000000e+00  0.0000000000000000e+00  0.0000000000000000e+00  0.0000000000000000e+00  0.0000000000000000e+00  0.0000000000000000e+00  0.0000000000000000e+00  0.0000000000000000e+00  0.0000000000000000e+00  0.0000000000000000e+00  0.0000000000000000e+00  0.0000000000000000e+00  0.0000000000000000e+00  0.0000000000000000e+00  0.0000000000000000e+00  0.0000000000000000e+00  0.0000000000000000e+00  0.0000000000000000e+00  0.0000000000000000e+00  0.0000000000000000e+00  0.0000000000000000e+00  0.0000000000000000e+00  0.0000000000000000e+00  0.0000000000000000e+00  0.0000000000000000e+00  0.0000000000000000e+00  0.0000000000000000e+00  0.0000000000000000e+00  0.0000000000000000e+00  0.0000000000000000e+00  0.0000000000000000e+00  0.0000000000000000e+00  0.0000000000000000e+00  0.0000000000000000e+00  0.0000000000000000e+00  0.0000000000000000e+00  0.0000000000000000e+00  0.0000000000000000e+00  0.0000000000000000e+00  0.0000000000000000e+00  0.0000000000000000e+00  0.0000000000000000e+00  0.0000000000000000e+00  0.0000000000000000e+00  0.0000000000000000e+00  0.0000000000000000e+00  0.0000000000000000e+00  0.0000000000000000e+00  0.0000000000000000e+00  0.0000000000000000e+00  0.0000000000000000e+00  0.0000000000000000e+00  0.0000000000000000e+00  0.0000000000000000e+00  0.0000000000000000e+00  0.0000000000000000e+00  0.0000000000000000e+00  0.0000000000000000e+00  0.0000000000000000e+00  0.0000000000000000e+00  0.0000000000000000e+00  0.0000000000000000e+00  0.0000000000000000e+00  0.0000000000000000e+00  0.0000000000000000e+00  0.0000000000000000e+00  0.0000000000000000e+00  0.0000000000000000e+00  0.0000000000000000e+00  0.0000000000000000e+00  0.0000000000000000e+00  0.0000000000000000e+00  0.0000000000000000e+00  0.0000000000000000e+00  0.0000000000000000e+00  0.0000000000000000e+00  0.0000000000000000e+00  0.0000000000000000e+00  0.0000000000000000e+00  0.0000000000000000e+00  0.0000000000000000e+00  0.0000000000000000e+00  0.0000000000000000e+00  0.0000000000000000e+00  0.0000000000000000e+00  0.0000000000000000e+00  0.0000000000000000e+00  0.0000000000000000e+00  0.0000000000000000e+00  0.0000000000000000e+00  0.0000000000000000e+00  0.0000000000000000e+00  0.0000000000000000e+00  0.0000000000000000e+00  0.0000000000000000e+00  0.0000000000000000e+00  0.0000000000000000e+00  0.0000000000000000e+00  0.0000000000000000e+00  0.0000000000000000e+00  0.0000000000000000e+00  0.0000000000000000e+00  0.0000000000000000e+00  0.0000000000000000e+00  0.0000000000000000e+00  0.0000000000000000e+00  0.0000000000000000e+00  0.0000000000000000e+00  0.0000000000000000e+00  0.0000000000000000e+00  0.0000000000000000e+00  0.0000000000000000e+00  0.0000000000000000e+00  0.0000000000000000e+00  0.0000000000000000e+00  0.0000000000000000e+00  0.0000000000000000e+00  9.2533605237199890e-01  7.1962297097434824e-01  7.1957519029575634e-01  7.1957825029355738e-01  7.1960445222870761e-01  7.0508706137424348e-01  6.8154796994176359e-01  5.8813891022435016e-01  5.8807526528955845e-01  5.4186563136195909e-01  5.3956024408241732e-01  5.2441014591774682e-01  5.1811234274835227e-01  8.4976028429838391e-01  8.4975565015402299e-01  8.5795611581134101e-01  4.6403942476835558e-01  4.6401975350598168e-01  4.6716262468214431e-01  4.6401977428926050e-01  8.5879926707382870e-01  8.4495335139949268e-01  4.4626299227923771e-01  4.4701261248501700e-01  8.2102649049142173e-01  4.3736870530825728e-01  4.2406865713549624e-01  4.5608642754477369e-01  4.6598881058694214e-01  4.2227850091565233e-01  7.2434922201879548e-01  5.2380376211775581e-01  3.5799662662925841e-01  3.5801634764118390e-01  3.6098509568346254e-01  3.5801217952131686e-01  7.3211886724994701e-01  6.6683280680968904e-01  6.6676966638979418e-01  7.3494063117936437e-01  6.7101231129663552e-01  8.9409126707845832e-01  8.9705187679729326e-01  7.1994358121978153e-01  3.3306016120351578e-01  3.2590677793900136e-01  3.3191279992388745e-01  3.2665083409986362e-01  5.3590365899165682e-01  3.2411777287580035e-01  3.2438945478570508e-01  3.0908283697918659e-01  3.1586994258809681e-01  6.8027563625177045e-01  6.2770889533160923e-01  7.0186870260660694e-01  3.0783395950169007e-01  3.0752208843125578e-01  8.4159798758752213e-01  7.4473741911181313e-01  9.0452419234879988e-01  9.0090632798109616e-01  8.9101725388961250e-01  6.0700632808364585e-01  8.2819316731165438e-01  3.1597954072814166e-01  7.9294852258851822e-01  8.2327236867618392e-01  3.0501066083838235e-01  2.9084234031793671e-01  5.8882346153534360e-01  6.5398095822719715e-01  2.8505624879854913e-01  8.2318826541008572e-01  9.0655277401942158e-01  7.9001804871579084e-01  7.8273265261930824e-01  8.0419764993093745e-01  7.8636683807011210e-01  6.1320951319180406e-01  2.7254718605617306e-01  2.7011933777056030e-01  2.7006804987921490e-01  5.4484997857669337e-01  2.7062564591948390e-01  2.8786217427821725e-01  6.3295024814350431e-01  5.6249218810073176e-01  2.6203835821926685e-01  7.7892855122447890e-01  6.0632556886303923e-01  6.3680387131652116e-01  5.3389983668897212e-01  2.5519671392935550e-01  7.3781034010302582e-01  5.3465295866323492e-01  5.3463979140711571e-01  2.5353248451620330e-01  7.8152165379979721e-01  2.5425872739699856e-01  5.7441499262205853e-01  2.5452774491281682e-01  5.1152446543714325e-01  6.0921327621104271e-01  5.8952214155929539e-01  8.6247914390743841e-01  7.9936228846981849e-01  7.8578206681836282e-01  2.4397204920665047e-01  4.9161593986498697e-01  2.3390197594541229e-01  7.7434026830742220e-01  5.6653895695542389e-01  6.2834497490382901e-01  2.5519706453798885e-01  4.9579789488860776e-01  8.9812214642864407e-01  6.3189477790263338e-01  4.3840206435347007e-01  4.9982823656676545e-01  2.6845573007043694e-01  2.5103343626059449e-01  4.3679416991606329e-01  6.9691138141813225e-01  8.5835210584278787e-01  5.8653197635884013e-01  4.7389988976997055e-01  8.5394951726288615e-01  2.3048916401140743e-01  4.7663119495135203e-01  3.0472357511120074e-01  2.3985443750372884e-01  4.5232452485056629e-01  7.0395433478771618e-01  2.3212605158548086e-01  2.3449666906576469e-01  2.2355395956887175e-01  2.2273110942134566e-01  5.5663219684987131e-01  8.9682002131851057e-01  3.6691225007268402e-01  7.5986024619127512e-01  4.6752261711892124e-01  8.4766186135821187e-01  4.0096635535958697e-01  9.1656226818491859e-01  4.4476405632969551e-01  8.0558017366434942e-01  2.0257976965487984e-01  3.0442736268869897e-01  2.2269708625586063e-01  6.8710354205517798e-01  6.3018875264625740e-01  8.0083899621515930e-01  6.3925666166616080e-01  2.0180871274077586e-01  2.0312573588014565e-01  1.9778149182367463e-01  1.9769082152998274e-01  4.0170002670170674e-01  6.0793427539870915e-01  8.7070866602163433e-01  4.1458868811006466e-01  3.8739088577434089e-01  5.4177815384835926e-01  6.3957982589703477e-01  4.5882680591108216e-01  6.6964975163312279e-01  7.5028833556911156e-01  9.1733877227004290e-01  8.7260136279400513e-01  4.2228229583574395e-01  6.3234153124622927e-01  2.0722478345239728e-01  8.5417587406843520e-01  8.0275671262092918e-01  7.2573684671562377e-01  4.2111827100888072e-01  7.8920430437624645e-01  4.4106424590780208e-01  6.7109622899141586e-01  7.2822882364897379e-01  4.1270594424873563e-01  6.5009671548096282e-01  3.8987037420286313e-01  4.4032673645415987e-01  8.7077287297417871e-01  9.1749646894691550e-01  8.7497403151408393e-01  1.8572515453126451e-01  1.9305200132952971e-01  7.0668775730439726e-01  1.8684947455966774e-01  2.0164869289580506e-01  6.9602110698753894e-01  6.3297642538898724e-01  5.7712531838676107e-01  6.3293740304713442e-01  5.6924011479280723e-01  7.2433944353339696e-01  5.7675315518766590e-01  4.5000102729042135e-01  1.8759155752464002e-01  1.8008714661684858e-01  1.8036444279656438e-01  3.9936220158403424e-01  6.5299806154520945e-01  4.0055016457166359e-01  3.8619430608036220e-01  1.8184215385100300e-01  1.8077422789025058e-01  7.4180443167630283e-01  8.0078711242483425e-01  1.8040939716581814e-01  7.8867892688892538e-01  7.8496133729227313e-01  8.4023829694493224e-01  1.7408872841823836e-01  7.1537878425466295e-01  1.7824533480232718e-01  9.1918917421973834e-01  5.2544382113386756e-01  1.9384242541626456e-01  1.8415544309643939e-01  1.7441624212855747e-01  7.7380087958653987e-01  1.7138420688644715e-01  2.2462557594711582e-01  3.4146006582720989e-01  1.8961967339231176e-01  1.7025825326538438e-01  4.4608918667638875e-01  3.6458276374315357e-01  3.7674117493270576e-01  3.6122702476568208e-01  1.7817239913154437e-01  4.7914480833702705e-01  1.8500325772607648e-01  3.3771268642223684e-01  1.6698073921423368e-01  8.7993338430639845e-01  8.9268629798011856e-01  3.7240149280754531e-01  3.8905223069268746e-01  6.1790982178207365e-01  8.9318319330963858e-01  4.5802557806757460e-01  7.4941827605579392e-01  7.1904494727147694e-01  8.7795131933071913e-01  4.0953000143556750e-01  5.9128219438604124e-01  5.4648941593864242e-01  4.2028219616013263e-01  1.6716263538946252e-01  1.7523108121759862e-01  1.6701283431992650e-01  2.0678847494331351e-01  7.2175310954940519e-01  7.2407126779921349e-01  5.6832502435669563e-01  1.7088237143279592e-01  5.6290594875840638e-01  7.9667387802233014e-01  1.6717246390971116e-01  6.4213704269901384e-01  8.2560389463617156e-01  8.2231705689179835e-01  9.0574355425889719e-01  8.6180136612258118e-01  5.6355755682436715e-01  9.2016795204184287e-01  1.7040580407576156e-01  8.3166163792637937e-01  6.7317859912781974e-01  7.2978312765769116e-01  6.2184564325908143e-01  5.8777984933300820e-01  6.0082299952006224e-01  1.7162991422106560e-01  8.5096432346172279e-01  4.3129325405905289e-01  7.4088018008438639e-01  5.2209419513856037e-01  6.4144242831637932e-01  7.8178927894665895e-01  7.8317413799755942e-01  8.3172869043054920e-01  2.0358229799216709e-01  8.2174732967814601e-01  4.7809426501645624e-01  8.6608523889489164e-01  5.6131361824320236e-01  5.1562486205486635e-01  9.1756887734043879e-01  7.7331154734857588e-01  3.8663111212982043e-01  5.4365693146339189e-01  4.3834947068784369e-01  8.8177146231488746e-01  3.4549454287213777e-01  6.8373812675141743e-01  4.6840841422489710e-01  1.5607050110165341e-01  1.5292321046971669e-01  9.0022330007735518e-01  5.1421459780665801e-01  1.6219181037392433e-01  3.5262007026463604e-01  3.8066869448337926e-01  1.6122882471363340e-01  3.5098275650049116e-01  1.5643083644433173e-01  1.5912152433035953e-01  8.2773047956747958e-01  1.5180408608137036e-01  5.0853747620298206e-01  5.5281305993297392e-01  5.5927409979426645e-01  4.2881331021390734e-01  1.5038422826847134e-01  7.8569997651826384e-01  7.8252537024864766e-01  8.3514710567035766e-01  7.1606991051927560e-01  3.2355768522046996e-01  7.3431499323562466e-01  5.9501976713948124e-01  6.6542939793312716e-01  9.1158874392125799e-01  1.4818452394090878e-01  1.4866271357760782e-01  3.6642100528021199e-01  7.6571451500828536e-01  8.2645495515827161e-01  5.4130310459587183e-01  7.7223331012664953e-01  7.5923339116000121e-01  4.8220097529342154e-01  6.5507288017299148e-01  7.3508757557845439e-01  5.6344107721594383e-01  6.3899369093090397e-01  5.4938171191359708e-01  6.6568203510058710e-01  3.0883238183700190e-01  3.7115333164440967e-01  6.9667585668736876e-01  5.2379222862464903e-01  8.7948448710975513e-01  1.5180594248600274e-01  6.7430563674911481e-01  6.7819347007942266e-01  3.9739251493130345e-01  3.4354011797195322e-01  3.2073631065966662e-01  3.1044993740418353e-01  8.8278636818248901e-01  3.0150499831354394e-01  6.6411010337963672e-01  7.5610230461939731e-01  4.7035026537477137e-01  5.0198266446642048e-01  8.3566346882667331e-01  3.1493393005410797e-01  3.0966773980841578e-01  5.2798409830247806e-01  5.1094911195678938e-01  6.8664013866137996e-01  3.1561852572434557e-01  9.0840420702002833e-01  5.9497625953037858e-01  7.7437963489762074e-01  8.3002082702121960e-01  1.3768656353832853e-01  3.1203342444280907e-01  6.5515693620418514e-01  1.4008465223148739e-01  6.4525166826011571e-01  2.1476325747606378e-01  1.4044464049835514e-01  1.3667283028892241e-01  1.4010286084645801e-01  5.9998917475370928e-01  9.2156764530397550e-01  6.5238077791143778e-01  1.4078572457718971e-01  1.3461663034942803e-01  7.3511129452361468e-01  4.8556908492831807e-01  8.7514868055624218e-01  5.3685484767130531e-01  5.0253142172637844e-01  1.3764040833112193e-01  5.3755484293571754e-01  7.2535544065436008e-01  8.2337930921744451e-01  1.3750346872291602e-01  3.3040046365347969e-01  5.0068426963043833e-01  4.4983023050246024e-01  3.5319902365389638e-01  2.9327071774240743e-01  1.4319300048914055e-01  3.0442055987131839e-01  3.3898562151202732e-01  3.5651220707899567e-01  2.9910221281306548e-01  7.5361057675116272e-01  2.9999604761824472e-01  8.5630608697766408e-01  5.6349205195517005e-01  5.9962965511077138e-01  4.4804610514700360e-01  4.1669501639440765e-01  1.7670385566316821e-01  7.6003318045330182e-01  5.4820513418566463e-01  3.4721173022727875e-01  3.2285830532213255e-01  4.7799233339716340e-01  9.1066606292800689e-01  5.5794080828512627e-01  3.5280997590481755e-01  4.7263645158562168e-01  7.9806408596088285e-01  1.3689852220080792e-01  1.3050661116985096e-01  6.0614260821833288e-01  6.5747141193051295e-01  6.1870980006703546e-01  1.3358618735257488e-01  8.1641305524512120e-01  8.8512593440888376e-01  6.0990754016716098e-01  4.4518200468749786e-01  3.0690693526170221e-01  8.5129069387473588e-01  8.8878164771769641e-01  4.2911301462543028e-01  7.1047908225904732e-01  2.7353593118487585e-01  1.3267468749230313e-01  6.4245505370330303e-01  1.2639022800061528e-01  8.3181296104840852e-01  5.3528640617801027e-01  7.5044256204950288e-01  7.9768290721261759e-01  7.4423773509533886e-01  8.2174267901591858e-01  6.1066686695728223e-01  1.2842361361315061e-01  1.2998361542703218e-01  1.3240548830839136e-01  3.6703063457810992e-01  3.1144445809812193e-01  5.6824143655495973e-01  4.0486315768987696e-01  2.8874980079052642e-01  1.2990448714197492e-01  8.9368906369941881e-01  4.0800233475702963e-01  4.5309171164404582e-01  8.7081923504674663e-01  3.7024348268797191e-01  7.0377058603832621e-01  8.1705944917469220e-01  1.2326309625789315e-01  7.6210542977857909e-01  3.7279386191453517e-01  8.7616246115466101e-01  9.0621976760709422e-01  2.7430143232216481e-01  2.9022340240122729e-01  1.3464452587039219e-01  7.3436836705819752e-01  1.2045337001118792e-01  6.4127277368382363e-01  8.1082495410280875e-01  7.5062677114345755e-01  6.8671429501445236e-01  5.0538084950510698e-01  2.6831905762236369e-01  4.6698363843281027e-01  1.2595006982011042e-01  5.0223396294062617e-01  5.8145070699108259e-01  6.6828743133877455e-01  6.8042265957381942e-01  6.1521125088575535e-01  4.1308784557784561e-01  4.7184496691003336e-01  5.1752875563805734e-01  2.6652407912760401e-01  8.3191773164725946e-01  1.1890477266108984e-01  8.6116055244690548e-01  6.8667473691660752e-01  5.7310805325962400e-01  6.0357693840501925e-01  6.4018935132894716e-01  6.8137565102074493e-01  5.1254799550247143e-01  8.2149905332974293e-01  8.7487081972130509e-01  4.2901529286397738e-01  1.2171959807674591e-01  7.4857260565300676e-01  2.7553358198931266e-01  6.9029675256624612e-01  8.3185191326159336e-01  4.3156572400811766e-01  8.5580463738651169e-01  8.9402525107117226e-01  5.2109432050151538e-01  7.8874113355778819e-01  4.8554815993064088e-01  5.1724449818186424e-01  4.1798056894925911e-01  5.6787865459145848e-01  5.0975315632506124e-01  7.2203036915324859e-01  1.2390026311547984e-01  7.6082688264874487e-01  2.9822757256989574e-01  4.8329547548544532e-01  6.6137843539571983e-01  1.2387052607347157e-01  2.8225661450350620e-01  8.9208834490229327e-01  3.4989593347946