<?xml version="1.0"?>
<VTKFile type="UnstructuredGrid"  version="0.1"  >
<UnstructuredGrid>
<Piece  NumberOfPoints="3238" NumberOfCells="6293">
<Points>
<DataArray  type="Float64"  NumberOfComponents="3"  format="ascii">0.9486832980505138 0 0  0.9475040099727444 0.047287959202839 0  0.9439690776354089 0.09445835308830697 0  0.9380872894372694 0.1413939086249357 0  0.9298732684305336 0.1879779366263939 0  0.9193474359656434 0.23409462185919 0  0.906535960920579 0.279629310977591 0  0.8914706946409063 0.3244687975699048 0  0.8741890917523123 0.3685016036074568 0  0.8547341170425047 0.4116182565965337 0  0.8331541386439797 0.453711561744252 0  0.809502807783224 0.4946768684617026 0  0.7838389253953122 0.5344123305418039 0  0.7562262959355172 0.5728191593650196 0  0.7267335687513813 0.6098018695034324 0  0.6954340674096222 0.6452685161125631 0  0.6624056074021922 0.6791309235207397 0  0.6277303026847052 0.7113049044477118 0  0.5914943615282048 0.741710469307493 0  0.5537878721918187 0.7702720250750756 0  0.514704578949153 0.7969185632226012 0  0.4743416490252568 0.8215838362577492 0  0.4327994310235916 0.8442065224254403 0  0.3901812054435905 0.8647303781633826 0  0.3465929279090647 0.8831043779324287 0  0.3021429657458285 0.8992828410741055 0  0.2569418285634513 0.9132255453799296 0  0.211101893510957 0.9248978270901541 0  0.1647371258895251 0.9342706670733373 0  0.1179627958167953 0.9413207629724764 0  0.07089519164719264 0.9460305871383375 0  0.02365133086075582 0.9483884302059546 0  -0.02365133086075571 0.9483884302059546 0  -0.07089519164719252 0.9460305871383375 0  -0.1179627958167952 0.9413207629724764 0  -0.164737125889525 0.9342706670733373 0  -0.2111018935109568 0.9248978270901541 0  -0.2569418285634511 0.9132255453799297 0  -0.3021429657458284 0.8992828410741056 0  -0.3465929279090646 0.8831043779324288 0  -0.3901812054435902 0.8647303781633827 0  -0.4327994310235911 0.8442065224254405 0  -0.4743416490252571 0.821583836257749 0  -0.5147045789491529 0.7969185632226014 0  -0.5537878721918184 0.7702720250750758 0  -0.5914943615282047 0.7417104693074931 0  -0.627730302684705 0.711304904447712 0  -0.6624056074021921 0.6791309235207398 0  -0.6954340674096222 0.6452685161125631 0  -0.7267335687513812 0.6098018695034326 0  -0.7562262959355172 0.5728191593650196 0  -0.783838925395312 0.5344123305418041 0  -0.8095028077832239 0.4946768684617027 0  -0.8331541386439798 0.4537115617442519 0  -0.8547341170425046 0.4116182565965338 0  -0.8741890917523124 0.3685016036074567 0  -0.8914706946409062 0.324468797569905 0  -0.9065359609205789 0.2796293109775914 0  -0.9193474359656433 0.2340946218591902 0  -0.9298732684305336 0.1879779366263939 0  -0.9380872894372694 0.141393908624936 0  -0.9439690776354089 0.09445835308830704 0  -0.9475040099727444 0.0472879592028393 0  -0.9486832980505138 1.161801964362116e-16 0  -0.9475040099727444 -0.04728795920283906 0  -0.9439690776354089 -0.0944583530883068 0  -0.9380872894372694 -0.1413939086249357 0  -0.9298732684305338 -0.1879779366263937 0  -0.9193474359656434 -0.23409462185919 0  -0.9065359609205791 -0.2796293109775908 0  -0.8914706946409063 -0.3244687975699048 0  -0.8741890917523123 -0.3685016036074569 0  -0.8547341170425047 -0.4116182565965337 0  -0.8331541386439799 -0.4537115617442517 0  -0.809502807783224 -0.4946768684617024 0  -0.7838389253953122 -0.5344123305418039 0  -0.7562262959355173 -0.5728191593650194 0  -0.7267335687513813 -0.6098018695034324 0  -0.6954340674096223 -0.6452685161125629 0  -0.6624056074021922 -0.6791309235207396 0  -0.6277303026847055 -0.7113049044477116 0  -0.5914943615282049 -0.7417104693074928 0  -0.5537878721918191 -0.7702720250750751 0  -0.5147045789491528 -0.7969185632226014 0  -0.4743416490252565 -0.8215838362577493 0  -0.4327994310235917 -0.8442065224254401 0  -0.3901812054435904 -0.8647303781633826 0  -0.3465929279090654 -0.8831043779324285 0  -0.302142965745829 -0.8992828410741054 0  -0.2569418285634507 -0.9132255453799298 0  -0.2111018935109571 -0.9248978270901541 0  -0.164737125889525 -0.9342706670733373 0  -0.1179627958167959 -0.9413207629724762 0  -0.07089519164719296 -0.9460305871383375 0  -0.02365133086075594 -0.9483884302059546 0  0.02365133086075559 -0.9483884302059546 0  0.07089519164719262 -0.9460305871383375 0  0.1179627958167947 -0.9413207629724765 0  0.1647371258895247 -0.9342706670733374 0  0.2111018935109567 -0.9248978270901541 0  0.2569418285634512 -0.9132255453799296 0  0.3021429657458287 -0.8992828410741055 0  0.3465929279090643 -0.8831043779324289 0  0.3901812054435901 -0.8647303781633827 0  0.4327994310235914 -0.8442065224254404 0  0.474341649025257 -0.8215838362577491 0  0.5147045789491531 -0.7969185632226011 0  0.5537878721918182 -0.7702720250750759 0  0.5914943615282046 -0.7417104693074931 0  0.6277303026847045 -0.7113049044477123 0  0.6624056074021923 -0.6791309235207396 0  0.6954340674096223 -0.6452685161125629 0  0.7267335687513811 -0.6098018695034327 0  0.756226295935517 -0.5728191593650197 0  0.7838389253953117 -0.5344123305418045 0  0.8095028077832241 -0.4946768684617024 0  0.8331541386439795 -0.4537115617442524 0  0.8547341170425046 -0.4116182565965339 0  0.8741890917523123 -0.3685016036074568 0  0.891470694640906 -0.3244687975699055 0  0.9065359609205789 -0.2796293109775915 0  0.9193474359656433 -0.2340946218591903 0  0.9298732684305336 -0.187977936626394 0  0.9380872894372694 -0.1413939086249356 0  0.9439690776354088 -0.09445835308830756 0  0.9475040099727444 -0.04728795920283941 0  -1.110223024625157e-16 0 0  0.09401819085916749 0.4650811898201446 0  -0.1170837026517897 -0.4598166372700095 0  0.3396710376326679 -0.3313057795005979 0  -0.3985831684342213 0.2574323040682528 0  0.4497812206361214 0.1511184532081793 0  -0.4678296522449308 -0.1836096083159234 0  -0.2355895500368295 0.5588844465176851 0  0.6052680571897296 -0.13814848431036 0  0.4316692651305813 0.4652288238608486 0  0.1699440018198525 -0.6040168882337353 0  -0.4163959192923318 -0.4962413327582046 0  -0.642769633956783 0.08054948543602583 0  -0.1115343976851466 0.2645908534915992 0  -0.1931670123238877 -0.1956285404753415 0  -0.2498407161687224 0.05177370136134687 0  5.898059818321144e-17 0.6981687943722161 0  -0.483109708437092 0.4979263437835442 0  0.361822037928239 -0.08258351904766598 0  0.4140141091090378 -0.566746635611325 0  0.6929212426656604 0.09538900823688645 0  -0.0577528169651628 -0.6994812675480986 0  0.2627635891281025 0.6484391215838409 0  0.1382745535810828 0.2140908845129365 0  0.1054207391253911 -0.3746875801437122 0  0.5845251382931255 -0.3858631758496659 0  -0.6990994377782311 -0.1595648846227037 0  0.6286160902717877 0.3271574405247115 0  -0.6370624647935379 0.3175922410853823 0  -0.6124653864901638 -0.3738489675350367 0  -0.2494905375702229 -0.6197712340060334 0  -0.4462945377711946 0.06630684398331937 0  0.154085691826424 -0.1588211969343469 0  0.2628873183017176 0.3654604251354111 0  -0.2806326729121043 -0.3638673359729195 0  0.2026367527909965 0.03002855433820255 0  -0.1883118667610724 0.7395472415971669 0  -0.3689568220919447 0.6775183381377181 0  -0.01993573429158397 -0.1734976089647549 0  -0.06367146275187838 0.5369808941678446 0  -0.3316788968411377 0.416048485101486 0  0.7214844899758113 -0.2726059376698902 0  0.7720971247867674 -0.09675632267405895 0  0.1158073085217154 -0.7683312895489415 0  0.3018176618408421 -0.7159960909166414 0  0.4736984522064285 0.6253687923070728 0  0.5997774220600344 0.495521041348345 0  0.5469845192899859 0.01694506421294018 0  0.4856555657620147 -0.2528582988922201 0  0.2423446599045919 -0.4599048318856052 0  0.01521443790310079 -0.5542414116777824 0  -0.3574093932547061 -0.06723838122191451 0  -0.1666092886506407 0.4146684525890751 0  -0.4115626391796692 -0.6642315991087294 0  0.2992692056075354 0.2085319774104712 0  -0.572142060044865 -0.06268399171098044 0  -0.4371838101656676 -0.3391145623819656 0  -0.7707361814220313 0.1759155038859614 0  -0.5659336192050233 -0.5519960729153512 0  -0.781552063470025 -0.01355730092482357 0  0.4696031588163752 0.3098387714856638 0  -0.0407097757674429 -0.3260896361090374 0  0.1559699745134315 0.7715390038889668 0  -0.5407358600344384 0.1966829475589161 0  -0.1986272613426354 -0.7678844928272964 0  0.5718291349409204 -0.5447036247449454 0  0.03058522588194268 0.3244992985667739 0  -0.253677331372863 0.2056171147481587 0  -0.1073780288228645 0.1105396375341932 0  -0.6367212858270217 0.4731834134190286 0  0.2931219035594987 0.5069630201331456 0  0.7563577705703616 0.2377948341003486 0  0.3420380570748312 0.05826637322450373 0  -0.1206725986386512 -0.07402828271247157 0  -0.3322725603356667 -0.2301646198664473 0  -0.7419042025048581 -0.3015255626410849 0  0.1195701669044717 0.6108932180062702 0  -0.5015416239321893 0.635717225788853 0  0.02737692077249736 0.134017139808744 0  0.3773860468351642 0.7206094891915363 0  0.812860493436187 0.03242610295987979 0  -0.07388611981097105 0.8111052309222055 0  -0.2442959246965964 -0.4892922127605825 0  0.7135655733810858 -0.4024692785058807 0  -0.3642932467066346 0.5484789362268634 0  -0.4524881480946273 0.3735876073978892 0  0.2099213516485349 -0.2848275062564233 0  0.3122478006637144 -0.2035159833569798 0  0.43109624127659 -0.6963837980763679 0  -0.004731464407071888 -0.8190067012611293 0  0.5600613423512718 0.2179439150874347 0  0.4468733578206618 -0.4269132077142946 0  0.4872830744017452 -0.09398863600514806 0  0.6664633094267685 -0.02789868416369569 0  -0.1060590692061801 -0.5842636330575839 0  0.2930869539360575 -0.5926370091989965 0  0.7165056531269813 0.4136747317087512 0  -0.6713889199795591 -0.4826957611142691 0  -0.1650615436669499 -0.3170959485608871 0  -0.7560359509185862 0.3411364121550141 0  -0.8181202307149236 -0.1442566701384753 0  -0.5906147236861463 -0.2403599348016739 0  0.1272020529197239 -0.4923009383391831 0  -0.1391534729758148 0.6301655208396788 0  -0.3568886656162428 0.1455060335331444 0  0.06164593118022811 -0.2623143376591542 0  -0.2389144395603171 -0.06622081533685589 0  -0.3247128298437102 
[...]
<PointData  Scalars="f_28-2"> 
<DataArray  type="Float64"  Name="f_28-2"  format="ascii">0.0000000000000000e+00  0.0000000000000000e+00  0.0000000000000000e+00  0.0000000000000000e+00  0.0000000000000000e+00  0.0000000000000000e+00  0.0000000000000000e+00  0.0000000000000000e+00  0.0000000000000000e+00  0.0000000000000000e+00  0.0000000000000000e+00  0.0000000000000000e+00  0.0000000000000000e+00  0.0000000000000000e+00  0.0000000000000000e+00  0.0000000000000000e+00  0.0000000000000000e+00  0.0000000000000000e+00  0.0000000000000000e+00  0.0000000000000000e+00  0.0000000000000000e+00  0.0000000000000000e+00  0.0000000000000000e+00  0.0000000000000000e+00  0.0000000000000000e+00  0.0000000000000000e+00  0.0000000000000000e+00  0.0000000000000000e+00  0.0000000000000000e+00  0.0000000000000000e+00  0.0000000000000000e+00  0.0000000000000000e+00  0.0000000000000000e+00  0.0000000000000000e+00  0.0000000000000000e+00  0.0000000000000000e+00  0.0000000000000000e+00  0.0000000000000000e+00  0.0000000000000000e+00  0.0000000000000000e+00  0.0000000000000000e+00  0.0000000000000000e+00  0.0000000000000000e+00  0.0000000000000000e+00  0.0000000000000000e+00  0.0000000000000000e+00  0.0000000000000000e+00  0.0000000000000000e+00  0.0000000000000000e+00  0.0000000000000000e+00  0.0000000000000000e+00  0.0000000000000000e+00  0.0000000000000000e+00  0.0000000000000000e+00  0.0000000000000000e+00  0.0000000000000000e+00  0.0000000000000000e+00  0.0000000000000000e+00  0.0000000000000000e+00  0.0000000000000000e+00  0.0000000000000000e+00  0.0000000000000000e+00  0.0000000000000000e+00  0.0000000000000000e+00  0.0000000000000000e+00  0.0000000000000000e+00  0.0000000000000000e+00  0.0000000000000000e+00  0.0000000000000000e+00  0.0000000000000000e+00  0.0000000000000000e+00  0.0000000000000000e+00  0.0000000000000000e+00  0.0000000000000000e+00  0.0000000000000000e+00  0.0000000000000000e+00  0.0000000000000000e+00  0.0000000000000000e+00  0.0000000000000000e+00  0.0000000000000000e+00  0.0000000000000000e+00  0.0000000000000000e+00  0.0000000000000000e+00  0.0000000000000000e+00  0.0000000000000000e+00  0.0000000000000000e+00  0.0000000000000000e+00  0.0000000000000000e+00  0.0000000000000000e+00  0.0000000000000000e+00  0.0000000000000000e+00  0.0000000000000000e+00  0.0000000000000000e+00  0.0000000000000000e+00  0.0000000000000000e+00  0.0000000000000000e+00  0.0000000000000000e+00  0.0000000000000000e+00  0.0000000000000000e+00  0.0000000000000000e+00  0.0000000000000000e+00  0.0000000000000000e+00  0.0000000000000000e+00  0.0000000000000000e+00  0.0000000000000000e+00  0.0000000000000000e+00  0.0000000000000000e+00  0.0000000000000000e+00  0.0000000000000000e+00  0.0000000000000000e+00  0.0000000000000000e+00  0.0000000000000000e+00  0.0000000000000000e+00  0.0000000000000000e+00  0.0000000000000000e+00  0.0000000000000000e+00  0.0000000000000000e+00  0.0000000000000000e+00  0.0000000000000000e+00  0.0000000000000000e+00  0.0000000000000000e+00  0.0000000000000000e+00  0.0000000000000000e+00  0.0000000000000000e+00  0.0000000000000000e+00  0.0000000000000000e+00  1.7694106266988794e+00  1.3712010787322626e+00  1.3719833829537054e+00  1.3689541786829833e+00  1.3714129436816260e+00  1.3720419981446708e+00  1.3083310044694370e+00  1.0267276013657245e+00  9.8916728023836586e-01  9.5165160041878194e-01  9.7161538477126597e-01  9.1232443660068807e-01  9.1663003413156707e-01  1.6401023184542209e+00  1.6501528872411684e+00  1.6698286571602925e+00  7.7137294321874950e-01  7.8220059342515280e-01  1.5517281570160388e+00  7.5813010076451370e-01  7.6434829368998780e-01  7.6136126037246588e-01  7.6527201569738279e-01  1.6650936415438293e+00  1.5288889940891655e+00  7.6637614865841019e-01  7.1772892390535870e-01  7.3750062662245208e-01  7.3063276700284718e-01  7.1518720743577757e-01  8.5763948776196686e-01  1.4195674098635105e+00  1.6938643362103549e+00  1.4230732595307900e+00  1.4054623491005132e+00  1.7028628392504406e+00  5.7841196649335180e-01  5.5318547812069396e-01  1.7197915186184098e+00  1.2088953539783547e+00  1.2308818500521057e+00  5.5724178726642082e-01  5.3396483920439641e-01  5.3871063285037457e-01  5.3805476056002677e-01  5.1629682625782947e-01  5.3677309528358719e-01  1.1901416312268349e+00  1.1900449373914728e+00  1.2625606902082631e+00  1.1708483138103745e+00  1.5584029782215503e+00  1.4270531144920244e+00  5.2519946718234933e-01  1.5548604410289411e+00  1.1156499089176717e+00  1.1716135598972270e+00  4.9896497983656518e-01  4.9538217436254101e-01  5.2602835334844900e-01  1.1494606715600619e+00  1.5971513529842112e+00  5.0871315680086227e-01  1.1128298604759717e+00  4.9117501936407038e-01  5.0146957230060007e-01  1.6023086958714654e+00  1.6005076450978655e+00  1.7298742877002771e+00  4.8845106226795099e-01  1.0867264662834026e+00  4.9171274997726117e-01  1.5785977573866175e+00  1.7365364134107983e+00  1.5061786422250767e+00  4.6391970560097406e-01  9.8478041954331130e-01  4.3776587672627998e-01  1.7411166982147221e+00  4.2942287955820119e-01  4.2799562086445475e-01  4.2618267419789141e-01  1.1903398818118800e+00  4.1257183610435705e-01  8.8385778861252162e-01  1.0810778557794218e+00  1.5691719798313246e+00  1.5501358464793829e+00  4.1247522296050437e-01  4.1263450977669830e-01  1.0433948252954532e+00  9.9697535480076227e-01  1.3213651541127456e+00  8.5613759018952595e-01  1.0612133590392638e+00  8.7652816497746266e-01  3.8634412852120759e-01  3.8822002298362374e-01  1.5674141754811952e+00  3.7903156893498463e-01  3.7526453546070959e-01  9.4196685241376132e-01  1.2907497252902447e+00  9.1711346825794993e-01  1.5317250522878556e+00  1.6522072034839181e+00  1.6745032684304419e+00  3.9948989817550357e-01  8.8122877094192398e-01  8.5542345257064534e-01  1.5597176162924635e+00  1.4494796296172698e+00  4.4503352818383690e-01  1.4603337740195295e+00  8.5955863579080427e-01  7.9959046032046566e-01  3.7960737887986928e-01  8.5772278974406602e-01  1.5424695752266619e+00  1.6658045444990410e+00  1.7489712958730343e+00  8.1613729813720470e-01  8.1536691734158961e-01  1.3878930346257503e+00  1.3835617889571328e+00  3.7731243837301076e-01  3.5771004640214832e-01  3.5774888540800620e-01  1.4249036176805525e+00  1.4487179147873264e+00  8.0921618367179016e-01  8.3459024719966057e-01  1.1725752214290908e+00  3.5427206724556515e-01  7.8623490762413473e-01  1.7505754172452335e+00  1.6621543982110167e+00  1.1664577154936235e+00  1.6628476333231212e+00  3.3042387698523779e-01  3.5926101518281955e-01  1.1639185412631696e+00  3.4815836190511446e-01  3.4410649844415092e-01  1.0065067462360382e+00  1.1800462856479217e+00  7.7155059529760117e-01  1.5747269690191601e+00  1.1823365598490938e+00  3.5086872271833930e-01  1.3992138654077138e+00  1.1993332728797106e+00  3.5533907143778021e-01  3.1585793944731766e-01  1.5659523090703653e+00  4.4084677872870509e-01  6.7286488644312270e-01  6.9945983862860028e-01  1.4295699457589897e+00  1.5544464521781995e+00  7.2698816187484594e-01  1.3611196120576226e+00  1.6861191720976416e+00  6.4350987581080976e-01  6.2784864347917035e-01  1.1805694288012420e+00  1.4237288573652800e+00  1.7297339723107301e+00  1.5986785567436479e+00  1.5534177043056541e+00  2.9322202095960853e-01  2.9808057010483668e-01  1.7333872657964979e+00  2.9363404852524733e-01  2.9092125943462011e-01  6.9708677185207657e-01  9.9349411691098188e-01  2.9653316108556865e-01  6.6570577417712173e-01  5.0408009428669975e-01  2.9902513821375565e-01  1.3615567302500220e+00  9.7939084742362392e-01  1.1890445725901595e+00  1.4308148011497113e+00  3.1760269458798074e-01  2.9404891520571680e-01  1.4889457978574141e+00  3.0917384588020880e-01  1.7586481599906865e+00  2.9644519560026400e-01  2.9826650829384033e-01  1.6817902894807166e+00  2.8194984991541977e-01  1.4053405288926033e+00  6.4918765922188237e-01  9.7248547471749147e-01  1.2296087234656254e+00  6.5777835925912875e-01  7.4135446984126874e-01  7.6465647755393484e-01  1.0602825353106815e+00  1.2445954232640086e+00  1.0204353538007631e+00  7.5327831434177506e-01  2.7432466450294279e-01  2.6547912493029469e-01  2.6755150389021487e-01  2.6503123462233796e-01  6.5125045050999686e-01  1.6431280696594439e+00  5.5090845155279455e-01  6.1836594343961304e-01  2.8179806102890603e-01  2.8160294694816090e-01  1.7160842225060648e+00  1.1747512824645872e+00  1.7154241815129689e+00  6.5499458591952953e-01  1.0801721768025898e+00  1.7105636339407353e+00  2.7580983301101586e-01  1.1745839503157851e+00  9.8063176036725952e-01  1.0709051630556665e+00  9.6939920086935139e-01  5.9192239102898780e-01  9.8192700220024287e-01  6.0750930163078176e-01  6.2776348520499070e-01  1.6343885424108964e+00  2.5356308225009094e-01  7.0511102125649427e-01  2.6172142469120002e-01  2.7092819783796573e-01  6.9031952107711314e-01  1.0554783236588969e+00  1.2973314643634859e+00  9.6462128925677082e-01  2.6318752731902367e-01  1.4122845187268744e+00  1.1434797694092498e+00  1.5010391996561876e+00  1.0926848572140087e+00  7.3077399490502404e-01  9.2412868655561387e-01  1.6828106134513423e+00  9.3742689598726436e-01  1.2638807819019306e+00  2.6545445396036021e-01  5.9274887019539801e-01  1.6184092778249910e+00  1.3516874389886828e+00  1.2074095560201310e+00  1.3968475138998979e+00  6.2248477446962258e-01  6.0598074078669084e-01  2.6004800294962538e-01  2.6563173020491776e-01  2.5694540583272946e-01  1.4005922529332948e+00  6.0602995315566133e-01  9.9598580308827900e-01  1.3542693056134250e+00  2.4456186398605406e-01  1.6023695392988764e+00  5.8953766991767553e-01  5.6334520748741435e-01  5.9208503655544997e-01  8.0771712911578963e-01  1.7602485477447383e+00  1.2183460506267891e+00  1.6617888566859411e+00  1.5071133294009584e+00  1.5049430140053301e+00  1.6678551134449100e+00  1.5887596360076104e+00  1.5163630004388395e+00  2.3867588458017064e-01  9.5819851325082805e-01  8.5558463031673671e-01  9.5388851648559847e-01  1.7152768317938050e+00  3.4441962716471441e-01  9.1747422605983342e-01  2.5286575079687929e-01  7.1549915431977196e-01  1.5998509618686167e+00  8.7492996979437088e-01  1.6342825208319831e+00  3.1553583131485252e-01  1.7581746939115448e+00  1.5987588527090608e+00  1.2824723937383564e+00  8.2273578566955152e-01  5.4437605570036374e-01  1.6254418149079319e+00  1.1861209465312201e+00  7.4801005670973575e-01  2.4835319041385676e-01  3.1669909529687562e-01  5.7817919330831646e-01  8.1608619806021665e-01  1.6227352498923155e+00  7.2509669469791560e-01  7.6202605619488073e-01  2.2355911424003203e-01  1.2885317425526135e+00  1.0144130411764474e+00  2.5256583798082599e-01  1.1939958316398864e+00  1.5177395600602179e+00  2.3678852093981007e-01  2.4178925395528056e-01  1.2949023742962289e+00  9.3239040386758198e-01  1.0118233342618079e+00  1.4024203465201399e+00  5.6497323641043795e-01  1.1200196886100922e+00  2.3692150048560806e-01  2.2081447521261591e-01  5.2728744710006858e-01  1.0921624006531487e+00  1.6419616734521472e+00  1.4938610226038485e+00  1.5570827898827162e+00  1.0742196833986462e+00  1.7000746715643462e+00  5.7333465629404401e-01  2.3988685278282376e-01  1.7618490721550730e+00  2.1761158664699945e-01  1.5876716887118691e+00  9.8024681006046888e-01  1.4298366060427150e+00  5.1332877520602005e-01  1.2558499269027950e+00  5.4721903008503758e-01  7.5602212849683403e-01  4.8772509961517091e-01  2.4486260296129478e-01  1.5402751591431079e+00  5.1047853973154522e-01  1.5181384187097711e+00  4.1611189545287136e-01  1.4902512920895954e+00  2.2058858007768703e-01  1.2007017048015556e+00  1.6176208212617376e+00  1.7065951164118807e+00  9.9684104686264463e-01  2.3605274927305689e-01  6.3224173830060670e-01  1.6596990623333834e+00  6.0849229226009838e-01  1.0189399735907170e+00  1.4233466165243083e+00  1.4813460209176863e+00  1.4915642003833789e+00  2.2338085958408815e-01  2.1121661572903291e-01  3.4210045431751623e-01  3.2390027825218598e-01  1.3531230852801495e+00  9.1617758116369818e-01  4.8709476179126021e-01  9.9217540328775478e-01  2.2526471064169232e-01  1.2602267467019266e+00  4.5341450066123284e-01  1.1386691993342810e+00  2.1571855501278761e-01  5.8827502906486939e-01  5.5802663316708745e-01  1.6517718487156896e+00  1.7636898168723363e+00  7.1498555106148887e-01  1.2083606236384461e+00  9.0578425913660676e-01  2.0521836249341008e-01  2.0650533309058214e-01  7.6839866417182445e-01  8.6846967286458421e-01  1.2282383763658684e+00  7.6658601156570638e-01  1.4824853886275835e+00  2.1187693970378393e-01  1.9189739996150695e-01  4.7380822751788249e-01  1.5310299578575532e+00  3.3270507445036807e-01  7.2009704916029049e-01  7.5965988793526718e-01  1.4592491183717751e+00  1.2456218736864226e+00  1.1577760639731780e+00  7.0062175896774603e-01  8.8937127991423792e-01  1.1356910627762589e+00  1.2161700469295496e+00  1.6257005033008496e+00  1.5083173939716013e+00  1.6055499985691626e+00  4.7683408170874186e-01  8.6286613857845595e-01  1.9721613383966258e-01  1.8950169417487042e-01  5.4156484686531003e-01  9.9726382008435188e-01  7.1116811916090206e-01  1.9196879060009148e-01  5.6184286026060204e-01  1.8846590360379589e-01  1.6091376538535036e+00  1.0716235401347911e+00  2.1692349019652193e-01  1.0509893994729989e+00  1.7204555338762872e+00  1.7237643125630981e+00  1.7379888861045261e+00  2.6038131092188888e-01  4.4629371931185685e-01  4.7945900553959797e-01  1.3091693695966498e+00  5.4766795500723497e-01  8.5958738977749027e-01  1.4789481235578692e+00  1.8723163873763796e-01  9.1668418973609145e-01  1.5629396542140790e+00  1.4730244863235828e+00  8.2462839674737509e-01  1.8719079375235323e-01  1.8061931051216928e-01  2.0181094432410610e-01  5.4807416587382007e-01  1.0595608898822253e+00  2.6389182201599182e-01  1.1323875412354938e+00  1.5240270708283887e+00  9.7194439686349288e-01  1.8222572680838822e-01  1.4552315415146280e+00  1.4668627871561648e+00  1.1656370661216857e+00  8.8618767974521329e-01  1.5881369356853257e+00  9.2612578504692311e-01  8.0497405494026020e-01  1.6026757641154616e+00  1.5197980558325366e+00  1.6086237837961515e+00  1.6869124117518430e+00  1.6173559109388149e+00  8.2661102132053510e-01  1.0487137678629443e+00  1.3455851290195837e+00  1.6183739925110501e+00  1.6881237071925439e+00  1.6839779574622027e+00  7.4874663746173664e-01  1.5413518817571299e+00  1.3240383116794918e+00  5.4976309962540237e-01  5.7057558914662132e-01  1.7163566590063422e+00  6.0893019497421330e-01  5.5843969546627070e-01  4.4801567188303465e-01  1.7516403408469608e-01  4.5963709293480387e-01  9.7957354758139181e-01  7.0931683820674030e-01  1.8633552630946956e-01  2.0812658043392523e-01  1.3512571153481727e+00  1.7720761486659067e-01  7.6050332292900413e-01  1.0046088360646328e+00  1.1430420043434639e+00  6.4196252610848292e-01  1.1159129917056552e+00  1.8468698370822328e-01  5.1709120162888056e-01  1.7403175115755407e-01  1.7416051983168512e+00  1.6972669550368380e+00  1.9348880084015227e-01  6.6279533392432366e-01  7.2096664767997587e-01  4.2376666537721674e-01  1.8220555837850300e-01  1.8259032308549050e-01  1.7850872483933852e-01  4.3299874703090657e-01  1.0047861883288909e+00  7.6025333273774698e-01  1.7161584805691704e-01  1.7361980598724117e-01  1.3194778095132342e+00  5.3359027861475494e-01  5.1271697446984010e-01  1.7247544171535614e+00  1.7444852988492059e+00  1.7633617687007701e+00  1.6534336985261786e+00  1.4204312360860696e+00  1.0060837537295944e+00  1.3267401046418537e+00  1.2672345929411331e+00  4.4030635519267747e-01  7.9636978243511880e-01  5.9480338056568904e-01  4.6596731769539929e-01  4.1464403304931868e-01  4.4471996420427401e-01  4.7023548053391190e-01  1.7342239615156996e-01  1.5197490665618263e+00  1.2909626398726901e+00  1.1881487350374655e+00  6.2130163369056390e-01  4.1929317967563756e-01  4.5976744570831385e-01  9.1273157745895006e-01  8.5099672837986307e-01  1.5124107094123660e+00  1.3328956035048922e+00  5.8951776254420885e-01  1.4892101976430578e+00  1.2588041602493429e+00  1.8486685926873894e-01  1.5974606898965675e+00  6.4307787219708989e-01  8.4303663217349134e-01  1.4799157216960541e+00  7.6587682842412608e-01  1.2860462618596653e+00  8.6194598547038714e-01  6.0595536352301116e-01  1.3152798448200655e+00  1.6639988651599047e+00  3.8980583020689852e-01  1.6915070257256795e-01  6.6493971698141441e-01  9.7290362417877940e-01  1.7568011883484438e+00  1.0019855164622122e+00  1.0217733243996707e+00  4.2873334942966440e-01  6.5666553400082783e-01  1.0958430832586208e+00  4.4711214566140411e-01  8.6083592942465725e-01  6.0322408316353227e-01  3.9066908590027194e-01  9.4905105108819865e-01  5.7638733107957885e-01  4.1847038144728865e-01  6.9017314913092864e-01  4.1243501846048941e-01  1.0755324287647272e+00  1.6221815207111548e-01  1.7870914826054762e-01  3.8715709777630708e-01  8.1339116181470872e-01  1.4182909081131734e+00  1.1278641155784057e+00  1.7491620566474282e+00  1.0728303988070518e+00  7.8535906982866621e-01  1.6755347519686141e+00  5.6944257545906996e-01  8.1418066091541930e-01  4.3350265709143698e-01  1.3269798607272529e+00  3.6569658078047951e-01  1.7494620058311147e-01  4.2152382939493466e-01  4.8209042779983652e-01  4.4859444221026579e-01  1.7213610430550013e+00  4.5967011961825721e-01  1.6974526250846905e-01  1.7094569841409998e-01  1.1848747344166981e+00  6.2974370583845840e-01  8.2309111638228694e-01  3.9556902435595587e-01  1.6470098266309536e+00  1.6811780627123101e+00  1.4163145510621051e+00  1.7409692872632303e+00  1.5728546967884793e-01  7.3298936675828952e-01  1.7313548138165797e+00  1.7639405080287851e+00  4.7557538948056843e-01  1.6164621880189110e+00  1.3047380794898138e+00  1.5684869124925975e+00  1.0070496396258530e+00  1.1218923352258108e+00  6.4876518481171064e-01  7.1175025779978329e-01  1.3159767806713349e+00  1.2567786722919612e+00  1.5597436054956137e+00  2.2128303737991845e-01  4.1109413200736833e-01  6.8364799866555093e-01  6.6693708751564651e-01  6.6269812472545042e-01  1.1953840693235986e+00  1.6717033262273775e+00  1.3219142823136782e+00  1.6924331017386818e+00  1.5139517531842919e+00  1.3453320859938531e+00  1.0661833897474335e+00  1.5875678672563551e+00  1.3103011891219301e+00  1.6984820634792901e+00  1.6245799808574988e+00  1.5581238295888540e+00  8.6664331202038836e-01  1.4966052187103267e+00  1.3966207925914227e+00  1.6354091123323038e+00  1.2403227513032096e+00  1.2283222586243105e+00  1.0829297961736797e+00  1.2904883378673544e+00  1.0436658455798049e+00  1.6396569216477277e+00  1.5254890901251730e-01  1.8338067937127878e-01  1.4306329608083357e+00  1.7040523219000148e+00  1.4999694744368857e+00  9.7971497187336609e-01  8.3130908622547617e-01  1.3760928233138254e+00  7.7728407232606955e-01  8.5958712771925150e-01  1.0912563650553988e+00  8.7741548252695889e-01  1.5769726780789742e-01  9.6880256605427906e-01  1.7513648586230874e+00  1.6259301463483029e+00  2.8205786327868265e-01  1.7418420079192753e-01  5.7133885944114327e-01  1.7529328094069418e-01  4.0339913047629578e-01  7.4851788281032794e-01  1.1287964737046903e+00  1.2787705318298921e+00  1.5625787999447580e+00  1.5746106529515327e-01  4.3809429693016594e-01  1.7798134968334983e-01  1.5334735754796414e-01  1.7430546717004662e+00  1.7245515890941746e-01  1.0493914866292944e+00  1.2932607529651001e+00  1.1474209251220264e+00  3.7047032659933765e-01  3.7138618905921300e-01  7.7778542600073541e-01  9.0704916640576627e-01  1.0004978672468181e+00  1.4462382541466472e+00  1.4033948227547275e+00  1.4933396190219002e+00  6.3296901277542772e-01  2.2280728230979657e-01  1.3736733586158372e+00  1.5092722576489133e+00  1.4775338121203390e+00  1.5929126757913297e+00  1.0729451250182631e+00  1.1384172649783617e+00  1.3148114132277502e+00  5.1236666667061725e-01  8.9869240048586885e-01  6.6803677849225662e-01  1.4633004121015230e+00  1.8738261109397347e-01  1.0939676052149252e+00  1.7003146727767413e+00  1.7375677219282484e+00  6.6496055784446051e-01  1.5517804813344251e+00  1.4401797145005527e-01  1.4883496380750767e+00  5.8447674017652640e-01  9.1989629933290329e-01  7.1983152924294824e-01  3.8935737760302219e-01  6.3341076564391