<?xml version="1.0"?>
<VTKFile type="UnstructuredGrid"  version="0.1"  >
<UnstructuredGrid>
<Piece  NumberOfPoints="3243" NumberOfCells="6301">
<Points>
<DataArray  type="Float64"  NumberOfComponents="3"  format="ascii">1 0 0  0.9987569212189223 0.04984588566069716 0  0.9950307753654014 0.09956784659581666 0  0.9888308262251285 0.1490422661761744 0  0.9801724878485438 0.1981461431993976 0  0.969077286229078 0.2467573976902936 0  0.9555728057861407 0.2947551744109042 0  0.9396926207859084 0.3420201433256687 0  0.9214762118704076 0.3884347962746947 0  0.9009688679024191 0.4338837391175581 0  0.8782215733702285 0.4782539786213182 0  0.8532908816321557 0.521435203379498 0  0.8262387743159949 0.5633200580636221 0  0.7971325072229225 0.6038044103254774 0  0.766044443118978 0.6427876096865393 0  0.7330518718298263 0.6801727377709194 0  0.6982368180860729 0.7158668492597184 0  0.6616858375968594 0.7497812029677342 0  0.6234898018587336 0.7818314824680298 0  0.58374367223479 0.8119380057158565 0  0.5425462638657594 0.8400259231507714 0  0.4999999999999999 0.8660254037844387 0  0.4562106573531631 0.8898718088114685 0  0.4112871031306117 0.9115058523116731 0  0.365341024366395 0.9308737486442042 0  0.3184866502516844 0.9479273461671317 0  0.2708404681430052 0.962624246950012 0  0.2225209339563144 0.9749279121818236 0  0.1736481776669304 0.984807753012208 0  0.1243437046474853 0.9922392066001721 0  0.07473009358642439 0.9972037971811801 0  0.02493069173807303 0.9996891820008162 0  -0.02493069173807291 0.9996891820008162 0  -0.07473009358642427 0.9972037971811801 0  -0.1243437046474852 0.9922392066001721 0  -0.1736481776669303 0.984807753012208 0  -0.2225209339563143 0.9749279121818236 0  -0.270840468143005 0.9626242469500121 0  -0.3184866502516843 0.9479273461671318 0  -0.3653410243663949 0.9308737486442044 0  -0.4112871031306114 0.9115058523116732 0  -0.4562106573531626 0.8898718088114688 0  -0.5000000000000002 0.8660254037844385 0  -0.5425462638657593 0.8400259231507715 0  -0.5837436722347896 0.8119380057158566 0  -0.6234898018587335 0.7818314824680299 0  -0.6616858375968592 0.7497812029677344 0  -0.6982368180860727 0.7158668492597186 0  -0.7330518718298263 0.6801727377709194 0  -0.7660444431189779 0.6427876096865395 0  -0.7971325072229225 0.6038044103254774 0  -0.8262387743159947 0.5633200580636223 0  -0.8532908816321556 0.5214352033794981 0  -0.8782215733702287 0.4782539786213181 0  -0.900968867902419 0.4338837391175582 0  -0.9214762118704077 0.3884347962746946 0  -0.9396926207859083 0.3420201433256689 0  -0.9555728057861406 0.2947551744109046 0  -0.9690772862290778 0.2467573976902938 0  -0.9801724878485438 0.1981461431993976 0  -0.9888308262251285 0.1490422661761747 0  -0.9950307753654014 0.09956784659581673 0  -0.9987569212189223 0.04984588566069748 0  -1 1.224646799147353e-16 0  -0.9987569212189223 -0.04984588566069723 0  -0.9950307753654014 -0.09956784659581648 0  -0.9888308262251285 -0.1490422661761745 0  -0.9801724878485439 -0.1981461431993974 0  -0.969077286229078 -0.2467573976902936 0  -0.9555728057861408 -0.2947551744109039 0  -0.9396926207859084 -0.3420201433256687 0  -0.9214762118704076 -0.3884347962746948 0  -0.9009688679024191 -0.433883739117558 0  -0.8782215733702288 -0.4782539786213179 0  -0.8532908816321557 -0.5214352033794979 0  -0.8262387743159949 -0.5633200580636221 0  -0.7971325072229226 -0.6038044103254772 0  -0.766044443118978 -0.6427876096865393 0  -0.7330518718298266 -0.6801727377709191 0  -0.6982368180860729 -0.7158668492597183 0  -0.6616858375968597 -0.749781202967734 0  -0.6234898018587337 -0.7818314824680297 0  -0.5837436722347905 -0.8119380057158559 0  -0.5425462638657592 -0.8400259231507715 0  -0.4999999999999996 -0.8660254037844388 0  -0.4562106573531632 -0.8898718088114684 0  -0.4112871031306116 -0.9115058523116731 0  -0.3653410243663957 -0.930873748644204 0  -0.318486650251685 -0.9479273461671316 0  -0.2708404681430046 -0.9626242469500123 0  -0.2225209339563146 -0.9749279121818236 0  -0.1736481776669303 -0.984807753012208 0  -0.1243437046474858 -0.992239206600172 0  -0.07473009358642473 -0.9972037971811801 0  -0.02493069173807316 -0.9996891820008162 0  0.02493069173807279 -0.9996891820008162 0  0.07473009358642436 -0.9972037971811801 0  0.1243437046474846 -0.9922392066001722 0  0.17364817766693 -0.9848077530122081 0  0.2225209339563142 -0.9749279121818236 0  0.2708404681430051 -0.962624246950012 0  0.3184866502516846 -0.9479273461671317 0  0.3653410243663945 -0.9308737486442045 0  0.4112871031306113 -0.9115058523116732 0  0.4562106573531629 -0.8898718088114687 0  0.5000000000000001 -0.8660254037844386 0  0.5425462638657597 -0.8400259231507713 0  0.5837436722347895 -0.8119380057158567 0  0.6234898018587334 -0.7818314824680299 0  0.6616858375968587 -0.7497812029677348 0  0.698236818086073 -0.7158668492597183 0  0.7330518718298266 -0.6801727377709191 0  0.7660444431189778 -0.6427876096865396 0  0.7971325072229224 -0.6038044103254775 0  0.8262387743159945 -0.5633200580636227 0  0.8532908816321558 -0.5214352033794979 0  0.8782215733702283 -0.4782539786213186 0  0.900968867902419 -0.4338837391175583 0  0.9214762118704076 -0.3884347962746947 0  0.9396926207859081 -0.3420201433256694 0  0.9555728057861406 -0.2947551744109047 0  0.9690772862290778 -0.246757397690294 0  0.9801724878485438 -0.1981461431993977 0  0.9888308262251285 -0.1490422661761744 0  0.9950307753654013 -0.09956784659581729 0  0.9987569212189223 -0.0498458856606976 0  0 -1.110223024625157e-16 0  -0.4060952245631048 0.2919625833433866 0  0.07454430279913359 0.4945691341012836 0  -0.3214937308814528 -0.3831413087744865 0  0.4060952245631052 -0.2919625833433861 0  0.4673719130775488 0.1970137823441975 0  0.07065575168974669 -0.5638195129952732 0  -0.5876518183134565 -0.07364232701738999 0  -0.2541979963622033 0.6030288969972762 0  0.4076207702370422 0.5262112245891383 0  0.6613130009878312 -0.07561785461588438 0  -0.2877924882763663 -0.08496671912316978 0  0.1122523041955583 -0.2722698749696852 0  -0.2136446684141768 -0.6649681138278456 0  0.3711239967993034 -0.5916870927688695 0  -0.6811618247539664 0.2288582017624023 0  -0.6036259983084502 -0.3898630043774365 0  -0.1519565356019055 0.3604834946258824 0  0.2223728889826192 0.7073349201016491 0  -0.5313477807263849 0.5182619981567066 0  0.6605018953341746 -0.3386195639300833 0  0.2873299503248539 -0.02875169806262802 0  0.1874625299482133 0.2355619893962034 0  0.7230148253408941 0.1735722145348512 0  -0.4549609197086589 -0.5957654959402137 0  -0.03463157487303079 0.7407085179683447 0  0.6291441987588993 0.406976916748466 0  -0.2289589159049669 0.1405285933300958 0  -0.08807616397075169 -0.392430403720013 0  0.205296612242771 -0.7458798537797463 0  -0.7547001834030465 -0.2123397074488059 0  -0.7837591992851975 0.01954573416024249 0  -0.01646532341657923 -0.7690653170628658 0  -0.4352401762958623 0.07855348178493107 0  0.2338185418859718 -0.4383564083763345 0  -0.4660907991281192 -0.2382969082541435 0  -0.07353959542582791 -0.189593951033018 0  -0.01634378184019994 0.2053797911459911 0  0.5767924862461576 -0.5348822709432305 0  0.4676013569319232 -0.1058100506567658 0  -0.4227737526629002 0.6918385751529503 0  0.3451218286438238 0.3448460222806342 0  -0.2417662837479932 0.783787041456639 0  0.7894336726564478 -0.2075150882455891 0  0.429437930868693 0.7027440193188219 0  0.5795530210908955 0.5802417886451888 0  0.818250434369694 0.01775696154863614 0  -0.09722442279153222 0.5263769109750763 0  -0.3089301091725765 0.4371354806480824 0  -0.7090524339547675 0.409371613613344 0  0.2438561876582929 0.4811936910778122 0  0.5432018434834983 0.04565923381603147 0  -0.3666591398357442 -0.7431965258712754 0  -0.5618207183878967 0.3397086085210991 0  -0.6185121444690291 -0.5572316488307958 0  -0.5977938369819751 0.08892586939414393 0  -0.2319369917805521 -0.2422716374480734 0  -0.2088517301748016 -0.8202123616008853 0  0.3674245052370875 -0.7539747860075445 0  0.5048967506413504 -0.6753011662259081 0  0.06820072641026245 0.3376857440261995 0  0.5825625451404475 -0.2068770910951368 0  -0.2093208387955752 -0.5017643152297908 0  0.4421364691493548 -0.4480702397503655 0  -0.06721994241050155 -0.6264082819342098 0  0.2198456810463068 -0.5890117939449101 0  0.1072482179998102 0.8270400658162729 0  0.101706945347264 0.1114338704246025 0  -0.826215081689274 0.1701570551503884 0  -0.7559016678791552 -0.3875281735895096 0  -0.1403081793782837 -0.05463656608767534 0  -0.4381435912761569 -0.0904638073416138 0  0.2648585596196462 -0.1972910845697012 0  0.1356675309518404 -0.09429826762197367 0  0.08800287638571841 -0.4175523043917539 0  0.772184265774069 0.3484228092971817 0  0.4820585818083429 0.3991084987153591 0  -0.6096551968804708 -0.2170872236035365 0  0.3980609174667186 0.06761537960865138 0  0.2429849976623634 0.1055167835565284 0  -0.4627258547488082 -0.3795349891758816 0  -0.5092671392521492 0.1973579212248526 0  0.7098874552164247 -0.4756664543534329 0  -0.3872144293666887 0.5549387157286028 0  0.007479912798405555 0.612104857903693 0  -0.1106088318060157 0.07657058882501411 0  -0.08645511997809778 0.8639888077054165 0  0.8546013271693483 0.1469869706377941 0  -0.7957961633846122 0.3035577340122536 0  -0.6516041046685823 0.5750440342764058 0  0.7950924905082843 -0.342029907248517 0  -0.8517730591837042 -0.1067410126442437 0  0.3279509223104274 0.7972989472436024 0  0.5615550327388615 0.2917503018191212 0  0.1039924397968217 -0.8490717333777242 0  -0.274352362125688 0.3088893272147279 0  -0.3199998995660726 -0.5804912223174621 0  0.3315659806484027 0.2091724322371269 0  -0.1325896474512148 0.6530104098458814 0  0.1376376998738423 0.6084703306290548 0  0.3241561268038429 0.6261409266958099 0  0.6961548279354922 0.5198857607104763 0  0.5313120496018447 -0.3261229251073059 0  -0.4541049825189052 0.4132022653064708 0  -0.544101644468135 0.646985081491446 0  0.5933756450024116 0.1654697377387106 0  0.6936465783424133 0.04861005800032081 0  0.1936093818855595 0.3634402114305412 0  -0.4937059030800814 
[...]
<PointData  Scalars="velocity-2"> 
<DataArray  type="Float64"  Name="velocity-2"  format="ascii">0.0000000000000000e+00  0.0000000000000000e+00  0.0000000000000000e+00  0.0000000000000000e+00  0.0000000000000000e+00  0.0000000000000000e+00  0.0000000000000000e+00  0.0000000000000000e+00  0.0000000000000000e+00  0.0000000000000000e+00  0.0000000000000000e+00  0.0000000000000000e+00  0.0000000000000000e+00  0.0000000000000000e+00  0.0000000000000000e+00  0.0000000000000000e+00  0.0000000000000000e+00  0.0000000000000000e+00  0.0000000000000000e+00  0.0000000000000000e+00  0.0000000000000000e+00  0.0000000000000000e+00  0.0000000000000000e+00  0.0000000000000000e+00  0.0000000000000000e+00  0.0000000000000000e+00  0.0000000000000000e+00  0.0000000000000000e+00  0.0000000000000000e+00  0.0000000000000000e+00  0.0000000000000000e+00  0.0000000000000000e+00  0.0000000000000000e+00  0.0000000000000000e+00  0.0000000000000000e+00  0.0000000000000000e+00  0.0000000000000000e+00  0.0000000000000000e+00  0.0000000000000000e+00  0.0000000000000000e+00  0.0000000000000000e+00  0.0000000000000000e+00  0.0000000000000000e+00  0.0000000000000000e+00  0.0000000000000000e+00  0.0000000000000000e+00  0.0000000000000000e+00  0.0000000000000000e+00  0.0000000000000000e+00  0.0000000000000000e+00  0.0000000000000000e+00  0.0000000000000000e+00  0.0000000000000000e+00  0.0000000000000000e+00  0.0000000000000000e+00  0.0000000000000000e+00  0.0000000000000000e+00  0.0000000000000000e+00  0.0000000000000000e+00  0.0000000000000000e+00  0.0000000000000000e+00  0.0000000000000000e+00  0.0000000000000000e+00  0.0000000000000000e+00  0.0000000000000000e+00  0.0000000000000000e+00  0.0000000000000000e+00  0.0000000000000000e+00  0.0000000000000000e+00  0.0000000000000000e+00  0.0000000000000000e+00  0.0000000000000000e+00  0.0000000000000000e+00  0.0000000000000000e+00  0.0000000000000000e+00  0.0000000000000000e+00  0.0000000000000000e+00  0.0000000000000000e+00  0.0000000000000000e+00  0.0000000000000000e+00  0.0000000000000000e+00  0.0000000000000000e+00  0.0000000000000000e+00  0.0000000000000000e+00  0.0000000000000000e+00  0.0000000000000000e+00  0.0000000000000000e+00  0.0000000000000000e+00  0.0000000000000000e+00  0.0000000000000000e+00  0.0000000000000000e+00  0.0000000000000000e+00  0.0000000000000000e+00  0.0000000000000000e+00  0.0000000000000000e+00  0.0000000000000000e+00  0.0000000000000000e+00  0.0000000000000000e+00  0.0000000000000000e+00  0.0000000000000000e+00  0.0000000000000000e+00  0.0000000000000000e+00  0.0000000000000000e+00  0.0000000000000000e+00  0.0000000000000000e+00  0.0000000000000000e+00  0.0000000000000000e+00  0.0000000000000000e+00  0.0000000000000000e+00  0.0000000000000000e+00  0.0000000000000000e+00  0.0000000000000000e+00  0.0000000000000000e+00  0.0000000000000000e+00  0.0000000000000000e+00  0.0000000000000000e+00  0.0000000000000000e+00  0.0000000000000000e+00  0.0000000000000000e+00  0.0000000000000000e+00  0.0000000000000000e+00  0.0000000000000000e+00  0.0000000000000000e+00  0.0000000000000000e+00  0.0000000000000000e+00  0.0000000000000000e+00  1.2507235168058257e+00  9.4467433370160503e-01  9.4471407774903937e-01  9.4477968053064532e-01  9.4489809073559583e-01  9.3607703398828357e-01  8.5388813428253718e-01  8.1845696038222060e-01  7.2124120693763660e-01  7.0276097601095866e-01  7.0268457517109084e-01  1.1410881738659853e+00  1.1452143684337168e+00  6.4604918432373815e-01  6.4610658236329732e-01  6.1012831609119356e-01  6.0985226619051802e-01  1.0647872381229113e+00  5.6799781675478145e-01  5.6673670096263551e-01  5.6630736289703443e-01  1.1486483673241201e+00  1.1405150970334423e+00  5.6417995663360410e-01  5.5259602073499292e-01  5.6796350850159905e-01  5.5322374070758840e-01  1.1626898295867636e+00  1.0539368180931956e+00  5.0650600859319905e-01  4.8601281945355979e-01  4.8586781363681519e-01  5.1456120524232773e-01  1.0125209386090024e+00  9.4898596948771641e-01  9.1477793482976966e-01  1.2005776518599829e+00  1.1988534886735263e+00  4.8084579189675852e-01  9.7002223681160460e-01  4.3231099737004780e-01  9.5978475566379540e-01  4.1284500752735948e-01  4.2108004145579003e-01  4.0560754424791556e-01  4.1248248881582339e-01  4.1625567970089572e-01  8.9951065008824671e-01  8.9939332390803239e-01  4.1550245733089658e-01  8.9380473278535111e-01  8.8627771422497292e-01  3.9481924267228308e-01  7.1800809591347059e-01  3.8714335818668649e-01  8.0063455687855656e-01  1.1140649985554798e+00  3.5772114039123831e-01  3.7357288929090915e-01  3.6423776948911862e-01  1.1065949585068602e+00  7.7983447038811193e-01  8.8821044750315103e-01  7.6177812209778617e-01  7.6077063305952120e-01  7.6321043493355700e-01  3.8403588923036291e-01  1.2230613783049402e+00  3.6371568028121748e-01  3.5095539710709101e-01  1.2227968745442477e+00  1.0066735941430938e+00  1.1178714644262220e+00  1.2176640880304277e+00  1.0289404575835885e+00  3.5591418433813499e-01  7.6755743471898508e-01  7.3304419128993070e-01  1.0524041742776573e+00  1.1651096120359994e+00  8.0967433996654992e-01  8.8499967076890762e-01  3.4038438204139693e-01  6.8409949115983004e-01  7.8908034932613669e-01  1.2286471721298473e+00  3.0997355455606873e-01  3.1274403982521987e-01  3.4604237675090654e-01  3.0849110996110013e-01  3.1648025903798643e-01  3.3194308325323274e-01  3.2361801525973311e-01  7.5663051831302386e-01  3.3840924548125395e-01  1.0433313941668534e+00  7.0737751646570179e-01  1.0636792525808987e+00  7.0163831982814862e-01  7.7067458367921182e-01  6.3439480992846620e-01  3.0890558731179379e-01  7.7124731061686669e-01  7.8631040261912855e-01  3.5952537665637430e-01  7.8312042710617624e-01  6.5153446354786215e-01  1.0444656445038292e+00  3.0139908141094668e-01  1.0347865510928569e+00  2.9145799095402103e-01  7.7143893109289385e-01  1.0663819725108949e+00  6.2048976642196885e-01  1.0568024439271158e+00  9.3578304999206818e-01  6.0552203478343714e-01  1.1183308356484907e+00  1.0432181849224282e+00  6.0277010599171377e-01  1.1839852081455113e+00  1.1603575510005137e+00  1.0623665175653960e+00  3.0278336939979222e-01  2.7983788650892755e-01  1.2119299526243279e+00  8.9511180579732785e-01  1.2108812161922318e+00  6.9069555464988286e-01  9.2345419674334961e-01  2.7571561035355457e-01  2.6754939465806787e-01  5.6258805297077774e-01  5.4995779799978362e-01  3.5510619474824723e-01  1.0366539287892704e+00  5.8106613348258784e-01  5.9863447379256518e-01  1.0875591225757835e+00  2.8939972015998933e-01  4.0085050497811359e-01  5.8286972261740488e-01  2.6727591286650837e-01  2.7203592089204437e-01  9.3944971045930337e-01  1.1295655647770282e+00  7.0813899625461729e-01  1.1317901195774418e+00  6.0070628196962217e-01  5.9845013338131359e-01  4.8906483529401218e-01  2.7840225313667333e-01  1.1850726607936366e+00  5.5666194432601035e-01  6.2683445916582348e-01  5.1521592071141342e-01  1.2380005255919013e+00  1.1860051031095669e+00  8.0937314557999784e-01  9.1786696967920134e-01  5.8872565360972595e-01  9.1448430722655571e-01  9.4920221573463781e-01  7.7396577804985056e-01  8.7959462154380641e-01  2.6425373773402511e-01  1.2380566144514509e+00  5.2471245599964056e-01  9.0092220113173616e-01  7.1635470112590627e-01  2.3722705757556131e-01  2.5933249053418256e-01  8.4070595606688148e-01  1.0632533257849175e+00  1.1219442450582293e+00  5.0963770902529892e-01  2.9362345183809185e-01  2.2633324566615715e-01  2.3494148508335813e-01  3.2390982516629202e-01  2.4318783815146847e-01  2.4911672467391033e-01  8.6152053744017920e-01  1.0604914026407979e+00  2.3827652517321821e-01  5.4404910727607203e-01  2.3768724060842028e-01  2.2244097090214304e-01  2.3782760195974781e-01  2.2103655092897773e-01  7.9900004209859321e-01  7.1847455921688475e-01  8.6242185313560293e-01  6.0132486185541112e-01  2.1762712368700529e-01  5.2154248197713093e-01  2.1465731313861314e-01  2.2574165107486649e-01  5.8079550290149640e-01  4.9875806268643946e-01  2.2926004707268002e-01  5.2605051423070148e-01  2.1701596805682610e-01  2.2054542458842216e-01  1.2405896634551596e+00  2.1038490115772879e-01  2.1985246434562564e-01  1.0167447781463776e+00  1.1871764299940240e+00  7.7303434147205197e-01  2.3304084874764591e-01  1.0332192477470052e+00  9.7458815522058784e-01  1.1160528444262763e+00  1.1784497173766699e+00  4.7060813092276788e-01  7.6480143974224579e-01  9.8415005326303873e-01  9.3705045556202815e-01  9.9978314669670154e-01  9.0786254649433296e-01  8.0735270486769262e-01  8.0892445276804603e-01  1.1215907647908456e+00  1.0411058208101738e+00  9.7102141566007916e-01  2.0298214661366579e-01  4.6503316277727674e-01  5.9206582260657825e-01  5.0111794247113672e-01  1.0326104273301711e+00  9.5626483204812962e-01  9.6994903264377896e-01  4.5298905563721642e-01  9.0380221561564156e-01  7.7771167564139276e-01  2.0989039735480283e-01  2.2517915379499634e-01  2.0732061678600397e-01  4.9787007223990637e-01  2.0474810269994850e-01  1.1288117707124850e+00  5.1320892339702295e-01  7.7023198154860661e-01  8.6523417754903564e-01  4.0536843184815036e-01  7.1330431639644865e-01  1.2415536977758692e+00  3.8520701509058436e-01  1.8929161343606921e-01  1.1780728007036825e+00  7.5557247228505864e-01  2.0318066498170134e-01  2.0318099754628652e-01  9.1680240142107627e-01  8.3224530207723879e-01  7.7325616541600062e-01  1.9798292828745626e-01  5.1663575350260071e-01  7.5483027505146083e-01  6.3684977880404070e-01  6.5989257019280345e-01  4.3983340106277896e-01  1.1345172597013840e+00  8.6618041601290752e-01  6.3632870979159206e-01  1.1011419116340824e+00  1.2087473561709472e+00  4.1425061497069543e-01  1.9691021824865543e-01  9.5477991410692942e-01  9.8848978252312125e-01  8.3310187932506818e-01  5.2012860296565155e-01  4.4766744694267163e-01  2.7374426128630380e-01  6.4330821134079552e-01  1.0247020723491842e+00  1.0359133318952076e+00  1.1618872807540694e+00  1.1157969787810804e+00  3.9578368965835675e-01  6.9475989908942448e-01  4.2430162682055339e-01  5.1131284554967560e-01  1.1393044205272971e+00  5.2658229036592552e-01  1.9443878088234218e-01  4.9331845741250729e-01  1.8689480787018101e-01  1.0355707489171404e+00  6.0118448605035346e-01  2.5189046847617508e-01  4.1964058661320214e-01  7.0448365729411067e-01  6.9099645159788847e-01  8.1592134871633337e-01  1.9258731593723960e-01  4.8521656375725697e-01  1.1031486284284227e+00  4.0251752521977252e-01  1.7952748232836668e-01  1.7551012311880737e-01  6.0981817502368385e-01  8.2622198994824425e-01  6.8993075229179113e-01  6.4947092592474853e-01  8.1838424883233840e-01  7.0315360214282019e-01  9.5676436408345455e-01  7.6349839608276038e-01  1.9233870927249250e-01  1.1882873588407452e+00  1.2436876123175302e+00  1.2213484480086112e+00  1.1895795196575407e+00  1.0818020236440609e+00  9.9585908169912507e-01  9.2030244616518631e-01  4.4343935922157707e-01  8.5592695261127227e-01  1.7214919228616110e-01  1.8760339732306999e-01  4.7398953628023949e-01  2.6595106108846056e-01  1.2194588444193080e+00  1.8189211435752717e-01  6.3136044815926540e-01  6.9259986043043531e-01  8.6843299600985080e-01  7.3439473763536434e-01  1.0933216683791542e+00  1.9457967273219928e-01  4.6243653976334531e-01  9.7685857835591550e-01  1.1305189725568416e+00  7.0314018984896254e-01  1.8294178934254074e-01  1.7448016669150054e-01  4.5930483799617489e-01  8.3079479064995398e-01  6.0535165699228000e-01  4.2733967680524565e-01  4.5024177520029107e-01  1.0465127333035222e+00  1.7578558783487097e-01  2.4760723317269454e-01  8.0142587532495790e-01  5.0263754596635080e-01  4.7290633075274174e-01  4.7131287186702642e-01  1.8374488297050112e-01  1.1564210274885882e+00  9.9113354252477903e-01  6.6450279360874964e-01  5.0302913970269281e-01  8.7522623318809534e-01  1.0498835684106935e+00  3.8581613758792971e-01  1.7292542174892003e-01  8.7802341684791219e-01  1.6432968874482479e-01  1.2061221520206038e+00  1.7510247785083638e-01  8.6451958827188391e-01  8.8709223729102582e-01  6.9654338459623244e-01  1.0018276894924445e+00  6.2140247363187850e-01  4.3655854592343663e-01  1.6523526072455066e-01  8.9406335981572771e-01  6.6492847912626440e-01  8.7744727458453431e-01  1.1851664165369995e+00  3.8981036977262085e-01  7.4369023517887167e-01  4.9544586063625651e-01  4.4693659240783856e-01  1.0201211857415031e+00  8.8951125996227709e-01  1.6971136154278807e-01  1.1162727540786597e+00  1.0241752113777958e+00  1.0709582830759834e+00  8.0350475249171671e-01  1.1251415465927388e+00  1.7417733943655841e-01  4.2868549041430054e-01  5.8667405655458993e-01  3.7124867430302089e-01  3.8068529251191580e-01  6.5971241514656398e-01  3.9575409414187546e-01  7.4440053033246623e-01  8.5344533029560699e-01  1.9036521720972457e-01  1.1402358815013176e+00  6.6819470557454952e-01  6.7752391069680784e-01  3.6544650464464962e-01  6.0473121303822774e-01  4.3386664953378989e-01  8.6034397287960751e-01  6.5279328708192830e-01  7.4285043717338761e-01  9.9804681175684540e-01  3.5588193339832602e-01  1.2010691879159656e+00  1.2180988156910788e+00  1.2451500640533644e+00  1.6071148262806870e-01  2.4338024131490035e-01  1.6819897179836188e-01  3.3853241725268779e-01  8.6254371082819714e-01  5.9929715065152012e-01  8.0256445873772564e-01  8.4861423203619890e-01  1.6095790176664262e-01  9.9222097073909821e-01  1.0968215748932442e+00  9.7023615470830560e-01  5.9232906022281995e-01  3.5238708703476479e-01  1.5375668985292504e-01  1.9324992842833327e-01  1.6621378813301577e-01  6.6873128061450660e-01  1.0026432535176231e+00  1.1689612195596926e+00  1.6099075376239261e-01  6.7630425161976260e-01  5.2475443891463047e-01  1.6108274568533548e-01  8.1254564064165224e-01  8.7587493330714583e-01  6.5836397754422094e-01  3.9440874111892854e-01  5.7473515954476462e-01  1.2456768697960923e+00  4.0117996083641699e-01  7.1751294341743477e-01  5.8721827843846319e-01  6.0883529335024422e-01  4.4640407822564576e-01  1.5233148313129363e-01  5.4288984577748567e-01  1.0532370180604540e+00  9.7483426361657344e-01  1.0754640708070855e+00  3.7374363481704420e-01  1.1821248298767366e+00  7.1013862340266565e-01  1.5931102594601440e-01  8.0554652382336678e-01  1.0958533473299799e+00  9.7443902278899008e-01  1.4349906399834517e-01  9.8074933850254264e-01  5.4290988421747488e-01  5.5866298012221938e-01  1.6042397004146630e-01  1.1086951771667144e+00  6.9657730667255569e-01  9.8869226222257001e-01  1.0844661885921472e+00  1.0983627673626977e+00  6.1320797513375358e-01  1.5191675376016034e-01  3.5790233417737932e-01  1.5688367867103895e-01  7.1066847016504242e-01  1.1172338407824249e+00  3.8546218455227410e-01  1.5258381391194029e-01  8.3504510151515399e-01  1.4385271889151696e-01  5.8949412866093698e-01  1.1684760876365547e+00  1.2346377316094346e+00  1.1813316700774954e+00  9.9786690027020986e-01  1.3895703389906436e-01  1.4250542517158465e-01  1.1044063859754569e+00  1.0952342719410475e+00  1.1670651707440347e+00  8.6296417957218552e-01  4.7126725848234186e-01  3.4284701453117100e-01  4.1289453856244790e-01  3.4874394895780947e-01  2.4610233904826520e-01  7.7416532941587224e-01  1.0954310964103142e+00  6.0777982161144473e-01  1.1785319127367058e+00  9.9110735658889670e-01  1.1029964904646332e+00  1.0649708784204621e+00  1.0148001273629597e+00  1.0175260663751071e+00  3.4648192072849543e-01  1.3505219750480627e-01  1.2246116294754925e+00  1.2090514638695082e+00  1.3788977161021362e-01  5.0782662737004836e-01  1.1654650465687866e+00  1.3416445566666488e-01  9.5453428949834673e-01  6.7245032287784678e-01  1.5474710219748045e-01  8.0835734319018582e-01  1.4124764369029796e-01  8.7853665641919521e-01  6.7110366586616954e-01  1.4792026570474767e-01  1.2377568200305187e+00  3.5863577238627803e-01  3.9520300719056140e-01  3.7861489780603319e-01  9.4360408984773192e-01  8.7077873355740931e-01  8.1695780361333348e-01  3.2637171113437524e-01  1.1345722507556997e+00  1.0790915267197776e+00  8.8116449838301825e-01  5.2644512916165720e-01  1.0296259060735020e+00  7.9354170415009850e-01  4.7239233640251566e-01  8.1125827219131252e-01  3.7630803724103384e-01  1.3405063467814318e-01  3.9390411544569298e-01  1.4271701221608821e-01  1.3698051764599312e-01  9.7197424998216808e-01  8.9212783639939219e-01  8.1255874936226724e-01  9.1832027792632720e-01  7.4669497606494217e-01  1.0885517650411685e+00  9.7515020622164494e-01  9.8147557558013276e-01  1.1507273520111916e+00  3.5109628588283637e-01  5.8902942421677729e-01  1.1816654832911246e+00  1.0958240971182196e+00  5.5887116541126669e-01  3.8443265383450698e-01  1.1871484626762236e+00  1.2148152940068095e+00  9.7960682135246790e-01  3.7803371796588026e-01  3.0391116078033192e-01  1.4436566315988264e-01  1.4357683591618473e-01  1.0212045567330226e+00  7.3203788997316621e-01  7.6207613639319161e-01  4.8055897937129710e-01  8.6418956633529698e-01  1.0703319138335532e+00  3.1476382763871252e-01  5.6239579249156513e-01  1.3096809925327263e-01  6.5883207313429837e-01  1.0770639195943676e+00  1.9694264556166977e-01  5.5132776076451639e-01  1.2405852208085437e-01  1.3388104723316938e-01  1.1465791689261178e+00  9.6261858021014912e-01  1.1672885247390159e+00  4.0509740187831073e-01  3.5871317818564641e-01  3.6677881321580380e-01  1.0857277622555264e+00  1.0208332744485318e+00  9.1422366327640570e-01  4.3063905705487143e-01  1.2681481252351065e-01  1.2282807700738216e-01  5.0433626376676333e-01  6.2818013081228186e-01  9.4952306346639848e-01  6.9023959881443397e-01  5.9039596639611969e-01  4.9828686351016277e-01  4.7853662960998750e-01  5.4868301321199986e-01  4.7007744378093025e-01  4.6091440978912906e-01  1.2001122869923893e+00  1.4236734645184085e-01  2.8651373168129268e-01  9.8463578428307730e-01  1.1204995746702724e+00  1.0483306189415564e+00  5.3476786560936651e-01  4.9489883201295326e-01  2.4385245833296940e-01  4.2265487113466887e-01  6.7461193286367682e-01  8.4815042611805802e-01  4.1660794523272943e-01  3.2961095918575772e-01  7.8653291007767023e-01  1.2342129134880033e+00  2.9165555059220005e-01  6.0057717622270468e-01  2.9475697445269466e-01  1.3138087282281000e-01  3.0741516126580448e-01  8.4092080144838444e-01  4.8891928988252797e-01  5.1050602065297312e-01  1.3659649774089513e-01  1.0008126803152553e+00  5.9321880598310661e-01  6.4261695254585738e-01  8.7089894370316590e-01  8.7738466032086182e-01  9.8818366796923229e-01  4.9201550532811272e-01  3.2297269091530983e-01  3.4761386674664557e-01  6.1513112509628676e-01  5.3314931856581860e-01  7.0619252145666911e-01  1.1612040846822762e+00  8.6385408855738666e-01  6.4018812157955085e-01  5.3600914508826358e-01  6.5898944238952517e-01  6.9635364457551219e-01  3.4988746771643359e-01  3.6001107369514851e-01  5.1618704284926353e-01  6.5315354059081987e-01  1.0630520909966532e+00  7.7653992928990923e-01  7.2508855881994205e-01  3.4062944809824647e-01  9.7119450296414001e-01  1.0753314782162842e+00  9.3440495411000690e-01  9.3222583595701336e-01  8.5258172193450654e-01  1.0403866851462873e+00  6.0969273819035308e-01  5.0191761670493640e-01  6.8449571900581652e-01  1.2083043502325587e-01  1.0537942266890628e+00  1.2233608700628008e-01  6.1968410263492113e-01  9.4095510675641136e-01  2.6774591852785673e-01  4.7582538723086848e-01  6.7606498268047122e-01  5.0126371348685306e-01  3.3604205726744102e-01  1.1526919933882831e+00  1.1897641121695264e+00  9.0099180538037804e-01  2.7663883294290564e-01  1.1524776918816073e+00  1.2436416310745883e-01  2.8721945244404118e-01  1.2798345839620937e-01  2.7468380135956466e-01  2.9171504100994977e-01  4.9225669662574384e-01  3.1645756153371973e-01  2.9981328871108215e-01  4.7877541492856973e-01  1.2251344628285106e+00  1.2382627942169765e-01  4.8698616101641162e-01  7.2702775054409052e-01  1.1919680761206665e-01  1.0198704579533850e+00  9.2903487898707793e-01  2.9369600762837911e-01  6.6951071295507047e-01  1.1443501124805544e-01  2.8322455199488783e-01  5.1826576828664372e-01  1.2083008030867828e+00  1.1975474072949124e+00  4.6142269029279753e-01  7.9512938788101872e-01  7.3703705827695809e-01  1.2301298180622904e+00  1.2213116929805456e+00  1.2081287355946113e+00  8.84652