<?xml version="1.0"?>
<VTKFile type="UnstructuredGrid"  version="0.1"  >
<UnstructuredGrid>
<Piece  NumberOfPoints="3238" NumberOfCells="6293">
<Points>
<DataArray  type="Float64"  NumberOfComponents="3"  format="ascii">0.9486832980505138 0 0  0.9475040099727444 0.047287959202839 0  0.9439690776354089 0.09445835308830697 0  0.9380872894372694 0.1413939086249357 0  0.9298732684305336 0.1879779366263939 0  0.9193474359656434 0.23409462185919 0  0.906535960920579 0.279629310977591 0  0.8914706946409063 0.3244687975699048 0  0.8741890917523123 0.3685016036074568 0  0.8547341170425047 0.4116182565965337 0  0.8331541386439797 0.453711561744252 0  0.809502807783224 0.4946768684617026 0  0.7838389253953122 0.5344123305418039 0  0.7562262959355172 0.5728191593650196 0  0.7267335687513813 0.6098018695034324 0  0.6954340674096222 0.6452685161125631 0  0.6624056074021922 0.6791309235207397 0  0.6277303026847052 0.7113049044477118 0  0.5914943615282048 0.741710469307493 0  0.5537878721918187 0.7702720250750756 0  0.514704578949153 0.7969185632226012 0  0.4743416490252568 0.8215838362577492 0  0.4327994310235916 0.8442065224254403 0  0.3901812054435905 0.8647303781633826 0  0.3465929279090647 0.8831043779324287 0  0.3021429657458285 0.8992828410741055 0  0.2569418285634513 0.9132255453799296 0  0.211101893510957 0.9248978270901541 0  0.1647371258895251 0.9342706670733373 0  0.1179627958167953 0.9413207629724764 0  0.07089519164719264 0.9460305871383375 0  0.02365133086075582 0.9483884302059546 0  -0.02365133086075571 0.9483884302059546 0  -0.07089519164719252 0.9460305871383375 0  -0.1179627958167952 0.9413207629724764 0  -0.164737125889525 0.9342706670733373 0  -0.2111018935109568 0.9248978270901541 0  -0.2569418285634511 0.9132255453799297 0  -0.3021429657458284 0.8992828410741056 0  -0.3465929279090646 0.8831043779324288 0  -0.3901812054435902 0.8647303781633827 0  -0.4327994310235911 0.8442065224254405 0  -0.4743416490252571 0.821583836257749 0  -0.5147045789491529 0.7969185632226014 0  -0.5537878721918184 0.7702720250750758 0  -0.5914943615282047 0.7417104693074931 0  -0.627730302684705 0.711304904447712 0  -0.6624056074021921 0.6791309235207398 0  -0.6954340674096222 0.6452685161125631 0  -0.7267335687513812 0.6098018695034326 0  -0.7562262959355172 0.5728191593650196 0  -0.783838925395312 0.5344123305418041 0  -0.8095028077832239 0.4946768684617027 0  -0.8331541386439798 0.4537115617442519 0  -0.8547341170425046 0.4116182565965338 0  -0.8741890917523124 0.3685016036074567 0  -0.8914706946409062 0.324468797569905 0  -0.9065359609205789 0.2796293109775914 0  -0.9193474359656433 0.2340946218591902 0  -0.9298732684305336 0.1879779366263939 0  -0.9380872894372694 0.141393908624936 0  -0.9439690776354089 0.09445835308830704 0  -0.9475040099727444 0.0472879592028393 0  -0.9486832980505138 1.161801964362116e-16 0  -0.9475040099727444 -0.04728795920283906 0  -0.9439690776354089 -0.0944583530883068 0  -0.9380872894372694 -0.1413939086249357 0  -0.9298732684305338 -0.1879779366263937 0  -0.9193474359656434 -0.23409462185919 0  -0.9065359609205791 -0.2796293109775908 0  -0.8914706946409063 -0.3244687975699048 0  -0.8741890917523123 -0.3685016036074569 0  -0.8547341170425047 -0.4116182565965337 0  -0.8331541386439799 -0.4537115617442517 0  -0.809502807783224 -0.4946768684617024 0  -0.7838389253953122 -0.5344123305418039 0  -0.7562262959355173 -0.5728191593650194 0  -0.7267335687513813 -0.6098018695034324 0  -0.6954340674096223 -0.6452685161125629 0  -0.6624056074021922 -0.6791309235207396 0  -0.6277303026847055 -0.7113049044477116 0  -0.5914943615282049 -0.7417104693074928 0  -0.5537878721918191 -0.7702720250750751 0  -0.5147045789491528 -0.7969185632226014 0  -0.4743416490252565 -0.8215838362577493 0  -0.4327994310235917 -0.8442065224254401 0  -0.3901812054435904 -0.8647303781633826 0  -0.3465929279090654 -0.8831043779324285 0  -0.302142965745829 -0.8992828410741054 0  -0.2569418285634507 -0.9132255453799298 0  -0.2111018935109571 -0.9248978270901541 0  -0.164737125889525 -0.9342706670733373 0  -0.1179627958167959 -0.9413207629724762 0  -0.07089519164719296 -0.9460305871383375 0  -0.02365133086075594 -0.9483884302059546 0  0.02365133086075559 -0.9483884302059546 0  0.07089519164719262 -0.9460305871383375 0  0.1179627958167947 -0.9413207629724765 0  0.1647371258895247 -0.9342706670733374 0  0.2111018935109567 -0.9248978270901541 0  0.2569418285634512 -0.9132255453799296 0  0.3021429657458287 -0.8992828410741055 0  0.3465929279090643 -0.8831043779324289 0  0.3901812054435901 -0.8647303781633827 0  0.4327994310235914 -0.8442065224254404 0  0.474341649025257 -0.8215838362577491 0  0.5147045789491531 -0.7969185632226011 0  0.5537878721918182 -0.7702720250750759 0  0.5914943615282046 -0.7417104693074931 0  0.6277303026847045 -0.7113049044477123 0  0.6624056074021923 -0.6791309235207396 0  0.6954340674096223 -0.6452685161125629 0  0.7267335687513811 -0.6098018695034327 0  0.756226295935517 -0.5728191593650197 0  0.7838389253953117 -0.5344123305418045 0  0.8095028077832241 -0.4946768684617024 0  0.8331541386439795 -0.4537115617442524 0  0.8547341170425046 -0.4116182565965339 0  0.8741890917523123 -0.3685016036074568 0  0.891470694640906 -0.3244687975699055 0  0.9065359609205789 -0.2796293109775915 0  0.9193474359656433 -0.2340946218591903 0  0.9298732684305336 -0.187977936626394 0  0.9380872894372694 -0.1413939086249356 0  0.9439690776354088 -0.09445835308830756 0  0.9475040099727444 -0.04728795920283941 0  -1.110223024625157e-16 0 0  0.09401819085916749 0.4650811898201446 0  -0.1170837026517897 -0.4598166372700095 0  0.3396710376326679 -0.3313057795005979 0  -0.3985831684342213 0.2574323040682528 0  0.4497812206361214 0.1511184532081793 0  -0.4678296522449308 -0.1836096083159234 0  -0.2355895500368295 0.5588844465176851 0  0.6052680571897296 -0.13814848431036 0  0.4316692651305813 0.4652288238608486 0  0.1699440018198525 -0.6040168882337353 0  -0.4163959192923318 -0.4962413327582046 0  -0.642769633956783 0.08054948543602583 0  -0.1115343976851466 0.2645908534915992 0  -0.1931670123238877 -0.1956285404753415 0  -0.2498407161687224 0.05177370136134687 0  5.898059818321144e-17 0.6981687943722161 0  -0.483109708437092 0.4979263437835442 0  0.361822037928239 -0.08258351904766598 0  0.4140141091090378 -0.566746635611325 0  0.6929212426656604 0.09538900823688645 0  -0.0577528169651628 -0.6994812675480986 0  0.2627635891281025 0.6484391215838409 0  0.1382745535810828 0.2140908845129365 0  0.1054207391253911 -0.3746875801437122 0  0.5845251382931255 -0.3858631758496659 0  -0.6990994377782311 -0.1595648846227037 0  0.6286160902717877 0.3271574405247115 0  -0.6370624647935379 0.3175922410853823 0  -0.6124653864901638 -0.3738489675350367 0  -0.2494905375702229 -0.6197712340060334 0  -0.4462945377711946 0.06630684398331937 0  0.154085691826424 -0.1588211969343469 0  0.2628873183017176 0.3654604251354111 0  -0.2806326729121043 -0.3638673359729195 0  0.2026367527909965 0.03002855433820255 0  -0.1883118667610724 0.7395472415971669 0  -0.3689568220919447 0.6775183381377181 0  -0.01993573429158397 -0.1734976089647549 0  -0.06367146275187838 0.5369808941678446 0  -0.3316788968411377 0.416048485101486 0  0.7214844899758113 -0.2726059376698902 0  0.7720971247867674 -0.09675632267405895 0  0.1158073085217154 -0.7683312895489415 0  0.3018176618408421 -0.7159960909166414 0  0.4736984522064285 0.6253687923070728 0  0.5997774220600344 0.495521041348345 0  0.5469845192899859 0.01694506421294018 0  0.4856555657620147 -0.2528582988922201 0  0.2423446599045919 -0.4599048318856052 0  0.01521443790310079 -0.5542414116777824 0  -0.3574093932547061 -0.06723838122191451 0  -0.1666092886506407 0.4146684525890751 0  -0.4115626391796692 -0.6642315991087294 0  0.2992692056075354 0.2085319774104712 0  -0.572142060044865 -0.06268399171098044 0  -0.4371838101656676 -0.3391145623819656 0  -0.7707361814220313 0.1759155038859614 0  -0.5659336192050233 -0.5519960729153512 0  -0.781552063470025 -0.01355730092482357 0  0.4696031588163752 0.3098387714856638 0  -0.0407097757674429 -0.3260896361090374 0  0.1559699745134315 0.7715390038889668 0  -0.5407358600344384 0.1966829475589161 0  -0.1986272613426354 -0.7678844928272964 0  0.5718291349409204 -0.5447036247449454 0  0.03058522588194268 0.3244992985667739 0  -0.253677331372863 0.2056171147481587 0  -0.1073780288228645 0.1105396375341932 0  -0.6367212858270217 0.4731834134190286 0  0.2931219035594987 0.5069630201331456 0  0.7563577705703616 0.2377948341003486 0  0.3420380570748312 0.05826637322450373 0  -0.1206725986386512 -0.07402828271247157 0  -0.3322725603356667 -0.2301646198664473 0  -0.7419042025048581 -0.3015255626410849 0  0.1195701669044717 0.6108932180062702 0  -0.5015416239321893 0.635717225788853 0  0.02737692077249736 0.134017139808744 0  0.3773860468351642 0.7206094891915363 0  0.812860493436187 0.03242610295987979 0  -0.07388611981097105 0.8111052309222055 0  -0.2442959246965964 -0.4892922127605825 0  0.7135655733810858 -0.4024692785058807 0  -0.3642932467066346 0.5484789362268634 0  -0.4524881480946273 0.3735876073978892 0  0.2099213516485349 -0.2848275062564233 0  0.3122478006637144 -0.2035159833569798 0  0.43109624127659 -0.6963837980763679 0  -0.004731464407071888 -0.8190067012611293 0  0.5600613423512718 0.2179439150874347 0  0.4468733578206618 -0.4269132077142946 0  0.4872830744017452 -0.09398863600514806 0  0.6664633094267685 -0.02789868416369569 0  -0.1060590692061801 -0.5842636330575839 0  0.2930869539360575 -0.5926370091989965 0  0.7165056531269813 0.4136747317087512 0  -0.6713889199795591 -0.4826957611142691 0  -0.1650615436669499 -0.3170959485608871 0  -0.7560359509185862 0.3411364121550141 0  -0.8181202307149236 -0.1442566701384753 0  -0.5906147236861463 -0.2403599348016739 0  0.1272020529197239 -0.4923009383391831 0  -0.1391534729758148 0.6301655208396788 0  -0.3568886656162428 0.1455060335331444 0  0.06164593118022811 -0.2623143376591542 0  -0.2389144395603171 -0.06622081533685589 0  -0.3247128298437102 
[...]
<PointData  Scalars="f_28-2"> 
<DataArray  type="Float64"  Name="f_28-2"  format="ascii">0.0000000000000000e+00  0.0000000000000000e+00  0.0000000000000000e+00  0.0000000000000000e+00  0.0000000000000000e+00  0.0000000000000000e+00  0.0000000000000000e+00  0.0000000000000000e+00  0.0000000000000000e+00  0.0000000000000000e+00  0.0000000000000000e+00  0.0000000000000000e+00  0.0000000000000000e+00  0.0000000000000000e+00  0.0000000000000000e+00  0.0000000000000000e+00  0.0000000000000000e+00  0.0000000000000000e+00  0.0000000000000000e+00  0.0000000000000000e+00  0.0000000000000000e+00  0.0000000000000000e+00  0.0000000000000000e+00  0.0000000000000000e+00  0.0000000000000000e+00  0.0000000000000000e+00  0.0000000000000000e+00  0.0000000000000000e+00  0.0000000000000000e+00  0.0000000000000000e+00  0.0000000000000000e+00  0.0000000000000000e+00  0.0000000000000000e+00  0.0000000000000000e+00  0.0000000000000000e+00  0.0000000000000000e+00  0.0000000000000000e+00  0.0000000000000000e+00  0.0000000000000000e+00  0.0000000000000000e+00  0.0000000000000000e+00  0.0000000000000000e+00  0.0000000000000000e+00  0.0000000000000000e+00  0.0000000000000000e+00  0.0000000000000000e+00  0.0000000000000000e+00  0.0000000000000000e+00  0.0000000000000000e+00  0.0000000000000000e+00  0.0000000000000000e+00  0.0000000000000000e+00  0.0000000000000000e+00  0.0000000000000000e+00  0.0000000000000000e+00  0.0000000000000000e+00  0.0000000000000000e+00  0.0000000000000000e+00  0.0000000000000000e+00  0.0000000000000000e+00  0.0000000000000000e+00  0.0000000000000000e+00  0.0000000000000000e+00  0.0000000000000000e+00  0.0000000000000000e+00  0.0000000000000000e+00  0.0000000000000000e+00  0.0000000000000000e+00  0.0000000000000000e+00  0.0000000000000000e+00  0.0000000000000000e+00  0.0000000000000000e+00  0.0000000000000000e+00  0.0000000000000000e+00  0.0000000000000000e+00  0.0000000000000000e+00  0.0000000000000000e+00  0.0000000000000000e+00  0.0000000000000000e+00  0.0000000000000000e+00  0.0000000000000000e+00  0.0000000000000000e+00  0.0000000000000000e+00  0.0000000000000000e+00  0.0000000000000000e+00  0.0000000000000000e+00  0.0000000000000000e+00  0.0000000000000000e+00  0.0000000000000000e+00  0.0000000000000000e+00  0.0000000000000000e+00  0.0000000000000000e+00  0.0000000000000000e+00  0.0000000000000000e+00  0.0000000000000000e+00  0.0000000000000000e+00  0.0000000000000000e+00  0.0000000000000000e+00  0.0000000000000000e+00  0.0000000000000000e+00  0.0000000000000000e+00  0.0000000000000000e+00  0.0000000000000000e+00  0.0000000000000000e+00  0.0000000000000000e+00  0.0000000000000000e+00  0.0000000000000000e+00  0.0000000000000000e+00  0.0000000000000000e+00  0.0000000000000000e+00  0.0000000000000000e+00  0.0000000000000000e+00  0.0000000000000000e+00  0.0000000000000000e+00  0.0000000000000000e+00  0.0000000000000000e+00  0.0000000000000000e+00  0.0000000000000000e+00  0.0000000000000000e+00  0.0000000000000000e+00  0.0000000000000000e+00  0.0000000000000000e+00  0.0000000000000000e+00  0.0000000000000000e+00  0.0000000000000000e+00  0.0000000000000000e+00  1.1834281016143111e+00  8.2697838814464242e-01  8.2602789358994932e-01  8.2473242306910544e-01  8.2583963036072383e-01  8.2568689471211687e-01  7.8429034590467384e-01  6.1684894766124887e-01  5.9608950430178398e-01  5.7266291806145719e-01  5.8452647361678156e-01  5.5412481860048446e-01  5.5360561539656938e-01  1.0523865856227206e+00  1.0628291736454629e+00  1.0777278711603755e+00  4.7670488787579712e-01  4.8234518145687966e-01  9.6347051766920677e-01  4.6956204642355270e-01  4.7510117764302079e-01  4.7255862052099290e-01  4.7415724096279305e-01  1.0800337625139855e+00  9.4326427922421685e-01  4.7477126604167763e-01  4.4573725279870713e-01  4.5777713158604560e-01  4.5404778568383714e-01  4.4766359644093451e-01  5.2267875968042943e-01  8.5930465454054672e-01  1.1067618226779556e+00  8.6162879025582517e-01  8.4775967504581107e-01  1.1175401449986082e+00  3.7304837079977388e-01  3.5634916019701196e-01  1.1343379779488085e+00  7.2236103917809180e-01  7.3769052824143933e-01  3.5696015322509134e-01  3.4368278653778311e-01  3.4858931871669335e-01  3.4811408979845099e-01  3.3431258927573415e-01  3.4526257364269952e-01  7.1349327302086274e-01  7.1208344512709354e-01  7.5564326916525448e-01  7.0089505871033464e-01  9.7219017632055504e-01  8.6654034314237205e-01  3.3908556566793829e-01  9.7217389882541705e-01  6.6637778534019221e-01  7.0067133278547111e-01  3.2254335932241179e-01  3.2310755046958556e-01  3.3947808919698763e-01  6.8688359031835167e-01  1.0104102190896715e+00  3.2904780114023324e-01  6.6759526032490757e-01  3.1931859816869856e-01  3.2652512579472504e-01  1.0134858771804680e+00  1.0125373378982745e+00  1.1450486510545856e+00  3.1894917693794567e-01  6.4997682980267402e-01  3.2051077691527713e-01  9.9203161804183626e-01  1.1502880526300021e+00  9.2306856926512104e-01  3.0555118571091977e-01  5.9100685521040031e-01  2.8856177542680911e-01  1.1520094750501497e+00  2.8089282348093797e-01  2.8229391083013872e-01  2.7902681806365387e-01  7.1186514222718122e-01  2.7249516371755117e-01  5.3546556252678601e-01  6.4911617325692883e-01  9.8422828109706473e-01  9.6293563127139170e-01  2.7047331784466883e-01  2.7186016829395587e-01  6.2574841993172758e-01  5.9944215185040695e-01  7.9260540288643444e-01  5.2126657494498618e-01  6.3639636311373082e-01  5.3291400973898262e-01  2.5484230924039236e-01  2.5614875181702518e-01  9.7919505278779762e-01  2.5036390792788149e-01  2.4935555229662387e-01  5.6987348064528554e-01  7.7295469547867124e-01  5.5760124218198637e-01  9.4583540992963455e-01  1.0673799492468941e+00  1.0842257022525266e+00  2.6401487123297124e-01  5.3574435561530453e-01  5.2201362737059309e-01  9.7119945784200135e-01  8.7970903065758910e-01  2.9108897547900187e-01  8.8827042630027786e-01  5.2321926588944301e-01  4.9338695286173612e-01  2.5027463680070577e-01  5.2498761271255490e-01  9.5282398637470367e-01  1.0790762987534470e+00  1.1632386927128102e+00  5.0111949355389007e-01  5.0319390259475694e-01  8.3737326314988181e-01  8.3260368423526165e-01  2.4925017810882924e-01  2.3810366819440518e-01  2.3748971573279595e-01  8.6151630483538411e-01  8.7979700358640489e-01  4.9582484141050354e-01  5.1292689606478248e-01  7.0128979510299072e-01  2.3520251668042069e-01  4.8600515443939052e-01  1.1649883764227087e+00  1.0753418155048251e+00  6.9835677039478117e-01  1.0796583952363761e+00  2.2058756679519465e-01  2.3960208472221162e-01  6.9574678017190916e-01  2.3139888910253201e-01  2.3023885594391286e-01  6.0315509584401217e-01  7.0719564230387577e-01  4.7756751645079071e-01  9.8561589668022898e-01  7.0609496941609895e-01  2.3334397688377309e-01  8.4269741261273401e-01  7.1768881612369351e-01  2.3575905341033457e-01  2.1111081112337213e-01  9.7933273650441710e-01  2.8954643274213387e-01  4.2423211986117276e-01  4.3952394650521975e-01  8.6503265882208136e-01  9.6447553684353005e-01  4.5546176505835601e-01  8.1677957347804930e-01  1.0985159304975383e+00  4.0700342668659589e-01  3.9619226441584715e-01  7.0676177621177561e-01  8.5982607269563183e-01  1.1442018220193797e+00  1.0109770102792084e+00  9.6721849381551894e-01  1.9733478323915724e-01  1.9966288464012794e-01  1.1426601338190492e+00  1.9637078081390874e-01  1.9509918133043602e-01  4.3637465434336814e-01  5.9629188358701712e-01  2.0017230052946086e-01  4.1990752904021783e-01  3.2648263156154772e-01  1.9916877218746593e-01  8.1988607117970547e-01  5.8875694418316538e-01  7.1201664155504363e-01  8.6551743992297192e-01  2.1136930822506200e-01  1.9670863128023300e-01  9.1016708597922624e-01  2.0706129554816749e-01  1.1693687391660634e+00  1.9881368564901161e-01  1.9893541492445252e-01  1.0931056211036370e+00  1.8973850908902959e-01  8.4775604138114669e-01  4.1099296241103711e-01  5.8486461561234915e-01  7.3667817514164213e-01  4.1741867463266558e-01  4.6019942305831329e-01  4.7288488721557603e-01  6.3724658613450258e-01  7.4252753545472772e-01  6.1172052161395352e-01  4.6788694885166870e-01  1.8504930391302765e-01  1.7939059336958940e-01  1.7899763875157848e-01  1.7983442652767476e-01  4.1120720034010805e-01  1.0577646746349938e+00  3.5398810907379608e-01  3.9367026747004635e-01  1.8917354127014455e-01  1.9031571999982183e-01  1.1289963484740677e+00  7.0332750473199546e-01  1.1274783789175880e+00  4.1400597613462514e-01  6.4734158651870610e-01  1.1240826171877740e+00  1.8411236562059483e-01  7.0441419604993616e-01  5.9127479860595933e-01  6.4180081010542944e-01  5.8624544939589585e-01  3.7908450235685048e-01  5.9209110098065143e-01  3.8613053017686677e-01  3.9995534284162249e-01  1.0491918014670698e+00  1.7039463198344218e-01  4.4325721820411884e-01  1.7526354505636180e-01  1.8177675377084510e-01  4.3308511879199713e-01  6.3316580247585064e-01  7.7687345078618153e-01  5.8209917846086556e-01  1.7765836654091610e-01  8.5284734760438397e-01  6.8446423501785558e-01  9.1919631585020345e-01  6.5504266667774635e-01  4.5820134309829003e-01  5.5761982867385784e-01  1.0970157875527051e+00  5.6555486533197130e-01  7.5613446804257756e-01  1.8054672106639144e-01  3.7985048052742898e-01  1.0317778557702404e+00  8.1180576379064362e-01  7.2110358998315272e-01  8.4276339003642231e-01  3.9563855134693915e-01  3.8697817626277403e-01  1.7603291841518839e-01  1.7942755502438790e-01  1.7425177851665521e-01  8.4655746013746414e-01  3.8687520550492588e-01  5.9675698085382967e-01  8.1358128694227083e-01  1.6399960987142326e-01  1.0171831591689051e+00  3.7612301462121045e-01  3.6200347694707891e-01  3.7691488618128960e-01  4.9670916377422542e-01  1.1724952624865244e+00  7.2752096395184462e-01  1.0762063081545121e+00  9.2627485293808898e-01  9.2296820912277378e-01  1.0809688078718762e+00  1.0002017736171100e+00  9.3151377854141360e-01  1.6143834920301489e-01  5.7843473826507763e-01  5.1995133527793591e-01  5.7752437868451378e-01  1.1283765343849652e+00  2.2894850047215068e-01  5.5545502596427965e-01  1.6883302801783295e-01  4.4619553365089992e-01  1.0120124327231630e+00  5.3312108794775137e-01  1.0487282790239580e+00  2.1060967682926374e-01  1.1749259118080935e+00  1.0105723995212985e+00  7.6908030829445306e-01  5.0369590165960321e-01  3.5145596424077785e-01  1.0361251429946425e+00  7.0826462867332673e-01  4.6687587666791547e-01  1.6719778360935181e-01  2.1158675010610106e-01  3.7185493931269509e-01  5.0277016047360668e-01  1.0327294683429438e+00  4.5271468889574040e-01  4.7510490549205758e-01  1.5090677919522097e-01  7.7009040882329349e-01  6.0777858319446709e-01  1.7065296007532360e-01  7.1485969671825200e-01  9.3324228667258635e-01  1.5909261155211993e-01  1.6362774806639899e-01  7.7613768252965476e-01  5.6522290065754854e-01  6.0785860492677679e-01  8.4392588918945055e-01  3.6243821759000272e-01  6.7121929059662500e-01  1.5979974908929082e-01  1.4974635182191409e-01  3.4066044259988199e-01  6.5093669184276071e-01  1.0564809497211061e+00  9.1491508743010064e-01  9.6801400110056923e-01  6.4376852033697174e-01  1.1103825415072111e+00  3.6747274190577273e-01  1.6220955808221280e-01  1.1748947617907908e+00  1.4831815866922571e-01  1.0020645434335744e+00  5.8958375634995674e-01  8.6543979809873695e-01  3.3383029171880912e-01  7.5211202443114777e-01  3.5323630138945722e-01  4.7007007916037519e-01  3.1832343263722518e-01  1.6590459968501464e-01  9.5539580407496938e-01  3.3168787926457383e-01  9.3276589757938666e-01  2.7394178368374933e-01  9.1219741064338977e-01  1.4914820927499589e-01  7.1906888173683992e-01  1.0309486325191670e+00  1.1191632960271811e+00  6.0102608207045716e-01  1.5796046602837294e-01  4.0094989498327771e-01  1.0744114639414981e+00  3.8634087518785626e-01  6.1201159183731879e-01  8.6056360991996339e-01  9.0430707805077759e-01  9.1220527485547265e-01  1.5165178538834620e-01  1.4174988509411288e-01  2.2803699575178168e-01  2.1651760965876918e-01  8.1265726879380862e-01  5.5348727027665512e-01  3.1833365891936682e-01  5.9744810328393605e-01  1.5206110971033907e-01  7.5240488262870331e-01  2.9640108643229912e-01  6.7949068551721503e-01  1.4587244310350567e-01  3.7674626309653059e-01  3.6042062722281615e-01  1.0637041781244581e+00  1.1754784494189496e+00  4.4719966327585975e-01  7.2283741361800435e-01  5.4909025774042308e-01  1.3978266320218780e-01  1.3870687350863034e-01  4.7733970981807489e-01  5.2870547096932208e-01  7.3400994974614653e-01  4.7512965767256443e-01  9.0332369326547257e-01  1.4406126430891236e-01  1.3037595651888148e-01  3.0774415812023742e-01  9.4557472267944831e-01  2.2122981480695461e-01  4.4963277675375868e-01  4.7202180343340361e-01  8.8686085478168397e-01  7.4490760272350254e-01  6.9416915660280043e-01  4.3824750259661321e-01  5.4212613204504001e-01  6.8093516645800511e-01  7.2688617021276003e-01  1.0394162393077082e+00  9.2663413476756273e-01  1.0179206958285492e+00  3.0966827170661065e-01  5.2717733405535561e-01  1.3432163304676770e-01  1.2883136026235345e-01  3.4713174356295334e-01  5.9979216180523176e-01  4.4651458679586714e-01  1.2999314230197265e-01  3.6195535925454508e-01  1.2791123150053338e-01  1.0244149799701439e+00  6.4274719574226225e-01  1.4719269222454706e-01  6.2982780344006861e-01  1.1288279532730607e+00  1.1381073259148002e+00  1.1509998089301747e+00  1.7513531450259551e-01  2.9132546259162245e-01  3.1328127252205668e-01  7.8574974712755818e-01  3.5224032630705976e-01  5.2381378590090000e-01  9.0093021274632112e-01  1.2682709053209137e-01  5.5540488589638315e-01  9.7658766906706940e-01  8.9815954839848522e-01  5.0617640312625900e-01  1.2714558080649729e-01  1.2253519694750425e-01  1.3768312100490007e-01  3.5251370619609157e-01  6.3646629653190290e-01  1.7796337655907229e-01  6.7727692645475868e-01  9.4034346130204438e-01  5.8712477840229349e-01  1.2364153814222464e-01  8.8226999678306861e-01  8.9261050746126724e-01  6.9602334645296682e-01  5.3975444267119854e-01  9.9958899057036099e-01  5.5899220266156791e-01  4.9599853456693299e-01  1.0192370275399216e+00  9.3643915172190417e-01  1.0214166617727425e+00  1.0988497937525252e+00  1.0328138269333986e+00  5.0694089228209716e-01  6.2809101068202422e-01  8.0628160339045851e-01  1.0302448865073612e+00  1.1013352655008781e+00  1.0974383697845020e+00  4.6362834640472056e-01  9.5466319965396462e-01  7.9456815277261750e-01  3.5388159007573800e-01  3.6772803929198217e-01  1.1304358865375195e+00  3.8783262192663420e-01  3.5961612712780100e-01  2.9098148621689929e-01  1.1922398168976915e-01  2.9986485585114736e-01  5.9028558433275002e-01  4.4421352543859000e-01  1.2760485496965498e-01  1.3983371409918166e-01  8.1205998596398732e-01  1.2141546847532433e-01  4.7258362775421109e-01  6.0317130294946608e-01  6.8331744638542158e-01  4.0714886624333313e-01  6.6697730124904020e-01  1.2500301356560686e-01  3.3456706101606964e-01  1.1782397094782292e-01  1.1569580959370183e+00  1.1119834737070833e+00  1.3081867177155984e-01  4.1954262525761249e-01  4.4934318228813347e-01  2.7860609496390493e-01  1.2413794050849337e-01  1.2331626886592947e-01  1.2156227561288317e-01  2.8423336570031815e-01  6.0278495194749071e-01  4.7027093464158504e-01  1.1625647457952248e-01  1.1954634579238584e-01  7.9064666674340001e-01  3.4390401662901837e-01  3.3050282921728891e-01  1.1384909842486048e+00  1.1571858124806296e+00  1.1779205746241912e+00  1.0627464531636612e+00  8.5766631262685056e-01  6.0512709375113338e-01  7.9590626837189793e-01  7.5804716849204956e-01  2.8722753823545827e-01  4.9168465599740979e-01  3.8060934557963216e-01  3.0546505035208660e-01  2.7375568524751420e-01  2.9230727660278960e-01  3.0808186249993841e-01  1.1817830149199023e-01  9.3682820453513516e-01  7.7366535208042597e-01  7.1033622407827390e-01  3.9829667001621838e-01  2.7587545025521820e-01  3.0049088805329854e-01  5.5267179460419502e-01  5.1967860929381215e-01  9.2891917448668304e-01  8.0069054281346586e-01  3.7671151852909701e-01  9.1177309601733825e-01  7.5452484193680325e-01  1.2517753131420714e-01  1.0069730815297300e+00  4.0724707968153512e-01  5.1521862588491840e-01  9.0103676587080739e-01  4.7376553362914831e-01  7.7045485838009509e-01  5.2392131340529546e-01  3.8683319730759158e-01  7.8869492378491890e-01  1.0786513634386952e+00  2.5726774315748346e-01  1.1592239610316350e-01  4.1989578998394872e-01  5.8622793453244715e-01  1.1695752007960403e+00  6.0259589410180514e-01  6.1235197825672660e-01  2.8208612568155916e-01  4.1299631861236358e-01  6.5435772340077736e-01  2.9491150402672234e-01  5.2308790744142430e-01  3.8798303162235837e-01  2.5891830864380228e-01  5.7270434730709452e-01  3.6809990241664059e-01  2.7444173360634738e-01  4.3355093281604418e-01  2.7102275088279704e-01  6.4268460121185111e-01  1.0966608659797826e-01  1.2056041119107304e-01  2.5621143815777342e-01  5.0092408193322968e-01  8.5712180115726722e-01  6.7161721043349087e-01  1.1615031984465916e+00  6.4248895714823751e-01  4.8392625232544667e-01  1.0882225285454619e+00  3.6672115349776391e-01  4.9945702493596400e-01  2.8423759122240172e-01  7.9513468098414020e-01  2.4204014832978549e-01  1.1880670077977752e-01  2.7800154608412331e-01  3.1329320394295956e-01  2.9558598218531063e-01  1.1341134374423503e+00  3.0414894854165780e-01  1.1465518975862775e-01  1.1651654565307198e-01  7.0879738967615735e-01  4.0102617230522780e-01  5.0466501871329750e-01  2.6035753351630170e-01  1.0593606452883757e+00  1.0918602848048999e+00  8.5595114466674316e-01  1.1541088440354952e+00  1.0676998833054914e-01  4.5830549429347589e-01  1.1449931226171755e+00  1.1799296550871772e+00  3.1075751049366146e-01  1.0334356971597076e+00  7.8277088015033514e-01  9.8219839549324528e-01  6.0584989106783271e-01  6.7273206975825295e-01  4.0993362716816822e-01  4.4663720550370795e-01  7.9133061027923424e-01  7.5195189854020261e-01  9.7345361953873033e-01  1.4893545092939242e-01  2.6906446299875514e-01  4.3038320229486599e-01  4.1744312450954907e-01  4.1746159844477887e-01  7.1515440828647803e-01  1.0853314796978137e+00  7.9308634440211845e-01  1.1043571817994167e+00  9.3022674152379847e-01  8.0795846069040966e-01  6.3868538180525281e-01  1.0008484707838934e+00  7.8758268310757185e-01  1.1102306503858721e+00  1.0357403122543554e+00  9.7046078887095899e-01  5.2720058077377618e-01  9.1894948687793598e-01  8.4280140912916512e-01  1.0506150520297293e+00  7.4199161241453415e-01  7.3510531894678166e-01  6.4890379635499185e-01  7.7259148101409791e-01  6.2568493739794151e-01  1.0522357605431194e+00  1.0412331091710471e-01  1.2519224936180678e-01  8.6515471490396068e-01  1.1150954657175356e+00  9.2106845633127676e-01  5.9117277159691273e-01  5.0873079137505217e-01  8.2730583052021422e-01  4.8076120704369918e-01  5.2426227507000289e-01  6.5325646529090986e-01  5.3376428044397639e-01  1.0861445746086650e-01  5.8149585807904458e-01  1.1657039745553479e+00  1.0394223394625877e+00  1.8837265955741248e-01  1.1899793557718001e-01  3.6893120860315354e-01  1.1974701544205070e-01  2.6500016931496240e-01  4.6639013809432661e-01  6.7491770034653298e-01  7.6663031180767660e-01  9.7636538472304424e-01  1.0663562335140529e-01  2.8865543862069254e-01  1.2200879934997068e-01  1.0418465131991239e-01  1.1552024546331467e+00  1.1638805269043979e-01  6.2910164160869597e-01  7.7442231304833775e-01  6.8729729585173460e-01  2.4615650020495480e-01  2.4656429047825471e-01  4.7996973476420640e-01  5.4824142142846721e-01  6.0141213606497679e-01  8.7661542015990424e-01  8.4525300236963996e-01  9.0884227991290345e-01  4.0414069655130036e-01  1.4926604666928786e-01  8.2648634960059442e-01  9.2661529133958231e-01  9.0275372995108027e-01  1.0026101993237895e+00  6.4256586702822183e-01  6.7933852580709086e-01  7.8765518681665603e-01  3.3057740191919821e-01  5.4519535222160898e-01  4.2275730014909402e-01  8.8960705777419269e-01  1.2710344761056463e-01  6.5431071856915701e-01  1.1151503087172259e+00  1.1532802736374208e+00  4.1880423724878046e-01  9.6723397365117603e-01  9.7456380375274848e-02  9.0900677338780966e-01  3.7254888491000920e-01  5.5870321669377787e-01  4.4796336103036893e-01  2.5985201997343199e-01  4.0147109719655