<?xml version="1.0"?>
<VTKFile type="UnstructuredGrid"  version="0.1"  >
<UnstructuredGrid>
<Piece  NumberOfPoints="48" NumberOfCells="130">
<Points>
<DataArray  type="Float64"  NumberOfComponents="3"  format="ascii">2 0.03958085226358687 -0.08038469816587773  2 0.6767994715531562 -0.7319793474097489  2 0.1170541932096755 -0.9884711682419384  1.471640883711892 0.1841820102590249 -0.3525923165165996  2 0.9807852804032304 -0.1950903220161282  0 0.3076461882255092 0.946641831668063  0.8390735365359996 -0.2048613424938509 0.9778212737458538  0 -0.3076461882255039 0.9466418316680646  0.531992401683702 -0.236483445080518 0.3228047890808533  1.004418682883515 0.001109974122828428 -0.002795400028503259  1.020914668286937 0.1950903220161292 0.9807852804032302  0.9194533905374678 0.5861347491156014 -0.8063859621906176  0.5628009668883787 0.3817794127286395 -0.179155033929158  0.7146070658082344 0.1820815858914776 -0.9820665290800503  1.423729161576471 -0.2539844475361375 0.3498705792586602  2 -0.9807852804032301 0.1950903220161294  1.299288476063125 -0.782579645377683 0.6151428300834265  1.284959687016016 -0.9856751621752424 -0.1454425192096276  0 0.8065970460793455 -0.5858775426529915  0 0.3076461882255046 -0.9466418316680644  0.9791218065097678 -0.9467519706416913 0.3072831086878711  1.449188621937132 0.3384323398204588 0.2329864469478753  2 -0.1170541932096758 0.9884711682419384  0 -0.9999999999999999 8.719246176613541e-16  0.5720052097265838 -0.3232321736617423 -0.2746585571345088  0 0.8065970460793497 0.5858775426529864  0 0.05450259393629062 -0.07111828751697291  0.8146906921942224 0.714943612543393 0.6975575745487927  1.026208638966963 0.9830734825447693 0.1718578157917925  1.216605136765853 -0.4175542372323685 0.9052406989901591  2 0.9053975484695387 0.4172607924959919  1.290963035931445 0.842474330651733 -0.5349818530794678  1.352112614363568 0.4175542372323678 -0.9052406989901596  1.020914668286937 -0.1950903220161295 -0.98078528040323  2 -0.6767994715531573 0.731979347409748  2 -0.4864155127577975 -0.8684335803860417  2 -0.905397548469539 -0.4172607924959912  1.216605136765853 -0.7321904312984759 -0.6765422650905474  0.7038816734996611 -0.5861347491156008 0.806385962190618  0 -0.8065970460793452 0.585877542652992  2 0.4864155127577979 0.8684335803860415  1.325041298016838 0.7321904312984757 0.6765422650905477  0.7631312411594542 -0.9467519706416923 -0.3072831086878679  0 -0.8065970460793465 -0.5858775426529904  0.7550067674535182 0.9306562046108429 -0.360343738326015  0.7051819374547734 -0.5967649048591401 -0.7976620188286898  0 1 0  0 -0.3076461882255061 -0.9466418316680639  </DataArray>
</Points>
<Cells>
<DataArray  type="UInt32"  Name="connectivity"  format="ascii">0 1 2 3  0 1 3 4  5 6 7 8  6 8 9 10  9 11 12 13  14 15 16 17  11 12 18 19  15 16 17 20  10 14 21 22  8 20 23 24  9 12 13 24  8 12 25 26  9 12 27 28  10 14 22 29  4 21 28 30  3 11 12 31  2 3 32 33  14 15 16 34  14 16 29 34  3 35 36 37  7 8 38 39  0 21 22 40  3 9 33 37  0 14 15 34  21 27 28 41  0 3 14 36  23 24 42 43  0 21 30 40  14 16 29 38  1 2 3 32  3 9 14 21  3 9 13 33  3 13 32 33  0 14 21 22  1 3 31 32  12 13 19 24  5 6 8 10  3 14 36 37  0 3 14 21  11 12 18 44  1 3 4 31  8 9 12 24  24 37 42 45  3 9 11 13  21 30 40 41  3 33 35 37  3 4 21 31  8 9 12 27  5 8 25 27  8 20 23 39  3 11 31 32  11 12 13 19  0 14 22 34  25 27 28 46  6 8 9 14  0 3 35 36  5 7 8 26  5 8 25 26  8 14 29 38  0 3 4 21  3 9 14 37  2 3 33 35  20 23 24 42  3 9 11 12  0 2 3 35  8 14 20 38  5 8 10 27  17 20 24 42  6 7 8 38  8 9 20 24  9 17 20 24  14 22 29 34  10 21 22 40  13 33 45 47  6 8 14 29  6 8 29 38  8 9 14 20  0 4 21 30  3 11 13 32  0 14 15 36  14 15 17 36  12 18 19 26  8 23 26 39  9 10 21 27  10 21 27 41  8 12 25 27  12 21 28 31  23 24 26 43  24 26 43 47  12 19 24 26  24 43 45 47  24 42 43 45  9 12 21 31  12 18 44 46  8 23 24 26  9 13 24 33  13 24 33 45  19 24 26 47  13 19 24 47  14 16 17 20  9 14 17 37  9 14 17 20  24 33 37 45  8 12 24 26  13 24 45 47  9 17 24 37  9 24 33 37  9 12 21 28  3 9 12 31  9 10 14 21  6 9 10 14  6 10 14 29  17 24 37 42  4 21 28 31  14 17 36 37  14 16 20 38  9 21 27 28  3 9 21 31  12 25 26 46  12 18 26 46  12 27 28 46  12 28 44 46  12 28 31 44  11 12 31 44  10 21 40 41  12 25 27 46  7 8 26 39  8 9 10 27  21 28 30 41  8 20 38 39  </DataArray>
<DataArray  type="UInt32"  Name="offsets"  format="ascii">4 8 12 16 20 24 28 32 36 40 44 48 52 56 60 64 68 72 76 80 84 88 92 96 100 104 108 112 116 120 124 128 132 136 140 144 148 152 156 160 164 168 172 176 180 184 188 192 196 200 204 208 212 216 220 224 228 232 236 240 244 248 252 256 260 264 268 272 276 280 284 288 292 296 300 304 308 312 316 320 324 328 332 336 340 344 348 352 356 360 364 368 372 376 380 384 388 392 396 400 404 408 412 416 420 424 428 432 436 440 444 448 452 456 460 464 468 472 476 480 484 488 492 496 500 504 508 512 516 520 </DataArray>
<DataArray  type="UInt8"  Name="types"  format="ascii">10 10 10 10 10 10 10 10 10 10 10 10 10 10 10 10 10 10 10 10 10 10 10 10 10 10 10 10 10 10 10 10 10 10 10 10 10 10 10 10 10 10 10 10 10 10 10 10 10 10 10 10 10 10 10 10 10 10 10 10 10 10 10 10 10 10 10 10 10 10 10 10 10 10 10 10 10 10 10 10 10 10 10 10 10 10 10 10 10 10 10 10 10 10 10 10 10 10 10 10 10 10 10 10 10 10 10 10 10 10 10 10 10 10 10 10 10 10 10 10 10 10 10 10 10 10 10 10 10 10 </DataArray>
</Cells>
<PointData  Scalars="f_21-3"> 
<DataArray  type="Float64"  Name="f_21-3"  format="ascii">0.0000000000000000e+00  0.0000000000000000e+00  0.0000000000000000e+00  -3.3101659439063064e-01  0.0000000000000000e+00  0.0000000000000000e+00  0.0000000000000000e+00  0.0000000000000000e+00  -3.4950799583655906e-01  -5.0448731082913023e-01  0.0000000000000000e+00  0.0000000000000000e+00  -3.3119311141292901e-01  0.0000000000000000e+00  -3.5951347039241138e-01  0.0000000000000000e+00  0.0000000000000000e+00  0.0000000000000000e+00  0.0000000000000000e+00  0.0000000000000000e+00  0.0000000000000000e+00  -3.4130147325723287e-01  0.0000000000000000e+00  0.0000000000000000e+00  -3.5075684194577256e-01  0.0000000000000000e+00  0.0000000000000000e+00  0.0000000000000000e+00  0.0000000000000000e+00  0.0000000000000000e+00  0.0000000000000000e+00  0.0000000000000000e+00  0.0000000000000000e+00  0.0000000000000000e+00  0.0000000000000000e+00  0.0000000000000000e+00  0.0000000000000000e+00  0.0000000000000000e+00  0.0000000000000000e+00  0.0000000000000000e+00  0.0000000000000000e+00  0.0000000000000000e+00  0.0000000000000000e+00  0.0000000000000000e+00  0.0000000000000000e+00  0.0000000000000000e+00  0.0000000000000000e+00  0.0000000000000000e+00  </DataArray> 
</PointData> 
</Piece>
</UnstructuredGrid>
</VTKFile>