<?xml version="1.0"?>
<VTKFile type="UnstructuredGrid"  version="0.1"  >
<UnstructuredGrid>
<Piece  NumberOfPoints="3238" NumberOfCells="6293">
<Points>
<DataArray  type="Float64"  NumberOfComponents="3"  format="ascii">0.9486832980505138 0 0  0.9475040099727444 0.047287959202839 0  0.9439690776354089 0.09445835308830697 0  0.9380872894372694 0.1413939086249357 0  0.9298732684305336 0.1879779366263939 0  0.9193474359656434 0.23409462185919 0  0.906535960920579 0.279629310977591 0  0.8914706946409063 0.3244687975699048 0  0.8741890917523123 0.3685016036074568 0  0.8547341170425047 0.4116182565965337 0  0.8331541386439797 0.453711561744252 0  0.809502807783224 0.4946768684617026 0  0.7838389253953122 0.5344123305418039 0  0.7562262959355172 0.5728191593650196 0  0.7267335687513813 0.6098018695034324 0  0.6954340674096222 0.6452685161125631 0  0.6624056074021922 0.6791309235207397 0  0.6277303026847052 0.7113049044477118 0  0.5914943615282048 0.741710469307493 0  0.5537878721918187 0.7702720250750756 0  0.514704578949153 0.7969185632226012 0  0.4743416490252568 0.8215838362577492 0  0.4327994310235916 0.8442065224254403 0  0.3901812054435905 0.8647303781633826 0  0.3465929279090647 0.8831043779324287 0  0.3021429657458285 0.8992828410741055 0  0.2569418285634513 0.9132255453799296 0  0.211101893510957 0.9248978270901541 0  0.1647371258895251 0.9342706670733373 0  0.1179627958167953 0.9413207629724764 0  0.07089519164719264 0.9460305871383375 0  0.02365133086075582 0.9483884302059546 0  -0.02365133086075571 0.9483884302059546 0  -0.07089519164719252 0.9460305871383375 0  -0.1179627958167952 0.9413207629724764 0  -0.164737125889525 0.9342706670733373 0  -0.2111018935109568 0.9248978270901541 0  -0.2569418285634511 0.9132255453799297 0  -0.3021429657458284 0.8992828410741056 0  -0.3465929279090646 0.8831043779324288 0  -0.3901812054435902 0.8647303781633827 0  -0.4327994310235911 0.8442065224254405 0  -0.4743416490252571 0.821583836257749 0  -0.5147045789491529 0.7969185632226014 0  -0.5537878721918184 0.7702720250750758 0  -0.5914943615282047 0.7417104693074931 0  -0.627730302684705 0.711304904447712 0  -0.6624056074021921 0.6791309235207398 0  -0.6954340674096222 0.6452685161125631 0  -0.7267335687513812 0.6098018695034326 0  -0.7562262959355172 0.5728191593650196 0  -0.783838925395312 0.5344123305418041 0  -0.8095028077832239 0.4946768684617027 0  -0.8331541386439798 0.4537115617442519 0  -0.8547341170425046 0.4116182565965338 0  -0.8741890917523124 0.3685016036074567 0  -0.8914706946409062 0.324468797569905 0  -0.9065359609205789 0.2796293109775914 0  -0.9193474359656433 0.2340946218591902 0  -0.9298732684305336 0.1879779366263939 0  -0.9380872894372694 0.141393908624936 0  -0.9439690776354089 0.09445835308830704 0  -0.9475040099727444 0.0472879592028393 0  -0.9486832980505138 1.161801964362116e-16 0  -0.9475040099727444 -0.04728795920283906 0  -0.9439690776354089 -0.0944583530883068 0  -0.9380872894372694 -0.1413939086249357 0  -0.9298732684305338 -0.1879779366263937 0  -0.9193474359656434 -0.23409462185919 0  -0.9065359609205791 -0.2796293109775908 0  -0.8914706946409063 -0.3244687975699048 0  -0.8741890917523123 -0.3685016036074569 0  -0.8547341170425047 -0.4116182565965337 0  -0.8331541386439799 -0.4537115617442517 0  -0.809502807783224 -0.4946768684617024 0  -0.7838389253953122 -0.5344123305418039 0  -0.7562262959355173 -0.5728191593650194 0  -0.7267335687513813 -0.6098018695034324 0  -0.6954340674096223 -0.6452685161125629 0  -0.6624056074021922 -0.6791309235207396 0  -0.6277303026847055 -0.7113049044477116 0  -0.5914943615282049 -0.7417104693074928 0  -0.5537878721918191 -0.7702720250750751 0  -0.5147045789491528 -0.7969185632226014 0  -0.4743416490252565 -0.8215838362577493 0  -0.4327994310235917 -0.8442065224254401 0  -0.3901812054435904 -0.8647303781633826 0  -0.3465929279090654 -0.8831043779324285 0  -0.302142965745829 -0.8992828410741054 0  -0.2569418285634507 -0.9132255453799298 0  -0.2111018935109571 -0.9248978270901541 0  -0.164737125889525 -0.9342706670733373 0  -0.1179627958167959 -0.9413207629724762 0  -0.07089519164719296 -0.9460305871383375 0  -0.02365133086075594 -0.9483884302059546 0  0.02365133086075559 -0.9483884302059546 0  0.07089519164719262 -0.9460305871383375 0  0.1179627958167947 -0.9413207629724765 0  0.1647371258895247 -0.9342706670733374 0  0.2111018935109567 -0.9248978270901541 0  0.2569418285634512 -0.9132255453799296 0  0.3021429657458287 -0.8992828410741055 0  0.3465929279090643 -0.8831043779324289 0  0.3901812054435901 -0.8647303781633827 0  0.4327994310235914 -0.8442065224254404 0  0.474341649025257 -0.8215838362577491 0  0.5147045789491531 -0.7969185632226011 0  0.5537878721918182 -0.7702720250750759 0  0.5914943615282046 -0.7417104693074931 0  0.6277303026847045 -0.7113049044477123 0  0.6624056074021923 -0.6791309235207396 0  0.6954340674096223 -0.6452685161125629 0  0.7267335687513811 -0.6098018695034327 0  0.756226295935517 -0.5728191593650197 0  0.7838389253953117 -0.5344123305418045 0  0.8095028077832241 -0.4946768684617024 0  0.8331541386439795 -0.4537115617442524 0  0.8547341170425046 -0.4116182565965339 0  0.8741890917523123 -0.3685016036074568 0  0.891470694640906 -0.3244687975699055 0  0.9065359609205789 -0.2796293109775915 0  0.9193474359656433 -0.2340946218591903 0  0.9298732684305336 -0.187977936626394 0  0.9380872894372694 -0.1413939086249356 0  0.9439690776354088 -0.09445835308830756 0  0.9475040099727444 -0.04728795920283941 0  -1.110223024625157e-16 0 0  0.09401819085916749 0.4650811898201446 0  -0.1170837026517897 -0.4598166372700095 0  0.3396710376326679 -0.3313057795005979 0  -0.3985831684342213 0.2574323040682528 0  0.4497812206361214 0.1511184532081793 0  -0.4678296522449308 -0.1836096083159234 0  -0.2355895500368295 0.5588844465176851 0  0.6052680571897296 -0.13814848431036 0  0.4316692651305813 0.4652288238608486 0  0.1699440018198525 -0.6040168882337353 0  -0.4163959192923318 -0.4962413327582046 0  -0.642769633956783 0.08054948543602583 0  -0.1115343976851466 0.2645908534915992 0  -0.1931670123238877 -0.1956285404753415 0  -0.2498407161687224 0.05177370136134687 0  5.898059818321144e-17 0.6981687943722161 0  -0.483109708437092 0.4979263437835442 0  0.361822037928239 -0.08258351904766598 0  0.4140141091090378 -0.566746635611325 0  0.6929212426656604 0.09538900823688645 0  -0.0577528169651628 -0.6994812675480986 0  0.2627635891281025 0.6484391215838409 0  0.1382745535810828 0.2140908845129365 0  0.1054207391253911 -0.3746875801437122 0  0.5845251382931255 -0.3858631758496659 0  -0.6990994377782311 -0.1595648846227037 0  0.6286160902717877 0.3271574405247115 0  -0.6370624647935379 0.3175922410853823 0  -0.6124653864901638 -0.3738489675350367 0  -0.2494905375702229 -0.6197712340060334 0  -0.4462945377711946 0.06630684398331937 0  0.154085691826424 -0.1588211969343469 0  0.2628873183017176 0.3654604251354111 0  -0.2806326729121043 -0.3638673359729195 0  0.2026367527909965 0.03002855433820255 0  -0.1883118667610724 0.7395472415971669 0  -0.3689568220919447 0.6775183381377181 0  -0.01993573429158397 -0.1734976089647549 0  -0.06367146275187838 0.5369808941678446 0  -0.3316788968411377 0.416048485101486 0  0.7214844899758113 -0.2726059376698902 0  0.7720971247867674 -0.09675632267405895 0  0.1158073085217154 -0.7683312895489415 0  0.3018176618408421 -0.7159960909166414 0  0.4736984522064285 0.6253687923070728 0  0.5997774220600344 0.495521041348345 0  0.5469845192899859 0.01694506421294018 0  0.4856555657620147 -0.2528582988922201 0  0.2423446599045919 -0.4599048318856052 0  0.01521443790310079 -0.5542414116777824 0  -0.3574093932547061 -0.06723838122191451 0  -0.1666092886506407 0.4146684525890751 0  -0.4115626391796692 -0.6642315991087294 0  0.2992692056075354 0.2085319774104712 0  -0.572142060044865 -0.06268399171098044 0  -0.4371838101656676 -0.3391145623819656 0  -0.7707361814220313 0.1759155038859614 0  -0.5659336192050233 -0.5519960729153512 0  -0.781552063470025 -0.01355730092482357 0  0.4696031588163752 0.3098387714856638 0  -0.0407097757674429 -0.3260896361090374 0  0.1559699745134315 0.7715390038889668 0  -0.5407358600344384 0.1966829475589161 0  -0.1986272613426354 -0.7678844928272964 0  0.5718291349409204 -0.5447036247449454 0  0.03058522588194268 0.3244992985667739 0  -0.253677331372863 0.2056171147481587 0  -0.1073780288228645 0.1105396375341932 0  -0.6367212858270217 0.4731834134190286 0  0.2931219035594987 0.5069630201331456 0  0.7563577705703616 0.2377948341003486 0  0.3420380570748312 0.05826637322450373 0  -0.1206725986386512 -0.07402828271247157 0  -0.3322725603356667 -0.2301646198664473 0  -0.7419042025048581 -0.3015255626410849 0  0.1195701669044717 0.6108932180062702 0  -0.5015416239321893 0.635717225788853 0  0.02737692077249736 0.134017139808744 0  0.3773860468351642 0.7206094891915363 0  0.812860493436187 0.03242610295987979 0  -0.07388611981097105 0.8111052309222055 0  -0.2442959246965964 -0.4892922127605825 0  0.7135655733810858 -0.4024692785058807 0  -0.3642932467066346 0.5484789362268634 0  -0.4524881480946273 0.3735876073978892 0  0.2099213516485349 -0.2848275062564233 0  0.3122478006637144 -0.2035159833569798 0  0.43109624127659 -0.6963837980763679 0  -0.004731464407071888 -0.8190067012611293 0  0.5600613423512718 0.2179439150874347 0  0.4468733578206618 -0.4269132077142946 0  0.4872830744017452 -0.09398863600514806 0  0.6664633094267685 -0.02789868416369569 0  -0.1060590692061801 -0.5842636330575839 0  0.2930869539360575 -0.5926370091989965 0  0.7165056531269813 0.4136747317087512 0  -0.6713889199795591 -0.4826957611142691 0  -0.1650615436669499 -0.3170959485608871 0  -0.7560359509185862 0.3411364121550141 0  -0.8181202307149236 -0.1442566701384753 0  -0.5906147236861463 -0.2403599348016739 0  0.1272020529197239 -0.4923009383391831 0  -0.1391534729758148 0.6301655208396788 0  -0.3568886656162428 0.1455060335331444 0  0.06164593118022811 -0.2623143376591542 0  -0.2389144395603171 -0.06622081533685589 0  -0.3247128298437102 
[...]
<PointData  Scalars="velocity-2"> 
<DataArray  type="Float64"  Name="velocity-2"  format="ascii">0.0000000000000000e+00  0.0000000000000000e+00  0.0000000000000000e+00  0.0000000000000000e+00  0.0000000000000000e+00  0.0000000000000000e+00  0.0000000000000000e+00  0.0000000000000000e+00  0.0000000000000000e+00  0.0000000000000000e+00  0.0000000000000000e+00  0.0000000000000000e+00  0.0000000000000000e+00  0.0000000000000000e+00  0.0000000000000000e+00  0.0000000000000000e+00  0.0000000000000000e+00  0.0000000000000000e+00  0.0000000000000000e+00  0.0000000000000000e+00  0.0000000000000000e+00  0.0000000000000000e+00  0.0000000000000000e+00  0.0000000000000000e+00  0.0000000000000000e+00  0.0000000000000000e+00  0.0000000000000000e+00  0.0000000000000000e+00  0.0000000000000000e+00  0.0000000000000000e+00  0.0000000000000000e+00  0.0000000000000000e+00  0.0000000000000000e+00  0.0000000000000000e+00  0.0000000000000000e+00  0.0000000000000000e+00  0.0000000000000000e+00  0.0000000000000000e+00  0.0000000000000000e+00  0.0000000000000000e+00  0.0000000000000000e+00  0.0000000000000000e+00  0.0000000000000000e+00  0.0000000000000000e+00  0.0000000000000000e+00  0.0000000000000000e+00  0.0000000000000000e+00  0.0000000000000000e+00  0.0000000000000000e+00  0.0000000000000000e+00  0.0000000000000000e+00  0.0000000000000000e+00  0.0000000000000000e+00  0.0000000000000000e+00  0.0000000000000000e+00  0.0000000000000000e+00  0.0000000000000000e+00  0.0000000000000000e+00  0.0000000000000000e+00  0.0000000000000000e+00  0.0000000000000000e+00  0.0000000000000000e+00  0.0000000000000000e+00  0.0000000000000000e+00  0.0000000000000000e+00  0.0000000000000000e+00  0.0000000000000000e+00  0.0000000000000000e+00  0.0000000000000000e+00  0.0000000000000000e+00  0.0000000000000000e+00  0.0000000000000000e+00  0.0000000000000000e+00  0.0000000000000000e+00  0.0000000000000000e+00  0.0000000000000000e+00  0.0000000000000000e+00  0.0000000000000000e+00  0.0000000000000000e+00  0.0000000000000000e+00  0.0000000000000000e+00  0.0000000000000000e+00  0.0000000000000000e+00  0.0000000000000000e+00  0.0000000000000000e+00  0.0000000000000000e+00  0.0000000000000000e+00  0.0000000000000000e+00  0.0000000000000000e+00  0.0000000000000000e+00  0.0000000000000000e+00  0.0000000000000000e+00  0.0000000000000000e+00  0.0000000000000000e+00  0.0000000000000000e+00  0.0000000000000000e+00  0.0000000000000000e+00  0.0000000000000000e+00  0.0000000000000000e+00  0.0000000000000000e+00  0.0000000000000000e+00  0.0000000000000000e+00  0.0000000000000000e+00  0.0000000000000000e+00  0.0000000000000000e+00  0.0000000000000000e+00  0.0000000000000000e+00  0.0000000000000000e+00  0.0000000000000000e+00  0.0000000000000000e+00  0.0000000000000000e+00  0.0000000000000000e+00  0.0000000000000000e+00  0.0000000000000000e+00  0.0000000000000000e+00  0.0000000000000000e+00  0.0000000000000000e+00  0.0000000000000000e+00  0.0000000000000000e+00  0.0000000000000000e+00  0.0000000000000000e+00  0.0000000000000000e+00  0.0000000000000000e+00  0.0000000000000000e+00  0.0000000000000000e+00  0.0000000000000000e+00  3.1067562059463651e+00  2.0093188508531004e+00  2.0182058398465239e+00  2.0004518610326483e+00  2.0116170810209999e+00  2.0062995986178365e+00  1.8992375876594401e+00  1.4705063670800569e+00  1.4067415372535217e+00  1.3527382761782978e+00  1.3851101576116445e+00  1.3034111833475315e+00  1.2917213371993539e+00  2.7485065251404555e+00  2.7906977746066297e+00  2.8678382522788604e+00  1.0838886390378606e+00  1.0958989494934321e+00  2.4156368283564791e+00  1.0666169389499536e+00  1.0791125958340284e+00  1.0649551890471352e+00  1.0797037692411464e+00  2.8580236651749082e+00  2.3510710959481838e+00  1.0834598771056267e+00  1.0077513148528583e+00  1.0323110104760667e+00  1.0415818495223159e+00  1.0046101232057343e+00  1.2179876016195945e+00  2.1059244158428623e+00  2.9780905546236465e+00  2.1008101219743329e+00  2.0640818980484261e+00  3.0345925972345253e+00  8.0977259126806300e-01  7.6865027464575009e-01  3.1454563458012550e+00  1.7337179019882760e+00  1.7740204277818241e+00  7.7113859193530565e-01  7.3916339539182219e-01  7.5216683794216677e-01  7.4217407635691923e-01  7.1137188049308475e-01  7.4363151319532383e-01  1.7093261649665754e+00  1.7070645366080972e+00  1.8309368279251867e+00  1.6703121663039013e+00  2.4471208132881266e+00  2.1274151128401981e+00  7.4231540542505103e-01  2.4366156216634938e+00  1.6023899026135837e+00  1.6913436232368610e+00  6.8842240918948572e-01  7.0028470927042086e-01  7.2695133814978141e-01  1.6426950175583948e+00  2.5787577733152269e+00  7.0331091766739029e-01  1.6011947718183590e+00  6.8249361158427990e-01  6.9871698655146697e-01  2.5888609595684753e+00  2.5912880171585897e+00  3.2082317936640519e+00  6.8769812099732486e-01  1.5582572309167408e+00  6.8013198759104765e-01  2.5100383523679151e+00  3.2476324349104559e+00  2.2822652874981526e+00  6.5563277071809689e-01  1.4049057129993485e+00  6.1101988390411943e-01  3.2519942186668995e+00  5.8657961509465062e-01  5.9140804392791890e-01  5.8981729823496698e-01  1.7157955716048245e+00  5.7679494381078955e-01  1.2569572020597368e+00  1.5542007483189548e+00  2.4813384642002267e+00  2.4054542487828545e+00  5.6700354181808565e-01  5.7423279603398725e-01  1.4970007186870005e+00  1.4209355249734490e+00  1.9213169154936667e+00  1.2154137730827574e+00  1.5215210106931996e+00  1.2481418810470850e+00  5.3385648886739723e-01  5.3814011153977193e-01  2.4757404609884102e+00  5.3174205144739595e-01  5.1902892360815223e-01  1.3381783502766160e+00  1.8693517898043772e+00  1.3123437409469099e+00  2.3611019750429376e+00  2.8107473609517060e+00  2.9007677742951188e+00  5.5527319843268852e-01  1.2484814962205784e+00  1.2079927078096320e+00  2.4422613856730084e+00  2.1568499175165861e+00  6.2081753276451834e-01  2.1799830842378056e+00  1.2213049155963334e+00  1.1253701188858254e+00  5.1557791520683982e-01  1.2170696774980692e+00  2.3847494814089534e+00  2.8600985915272106e+00  3.2756564130614434e+00  1.1425325020086687e+00  1.1480869046343956e+00  2.0455333489478629e+00  2.0248881917298855e+00  5.1452632032952872e-01  4.9450504731018946e-01  4.8537325849868307e-01  2.1138557576023103e+00  2.1527724870340195e+00  1.1389119964048644e+00  1.1770314610630883e+00  1.6884945303841778e+00  4.8226817745926381e-01  1.1160347417044574e+00  3.3062671009360858e+00  2.8557154990978106e+00  1.6683152713300862e+00  2.8463272990408961e+00  4.5033127225807823e-01  4.9349988537817818e-01  1.6724141596381576e+00  4.8098465296095233e-01  4.7551092469645012e-01  1.4411134102987664e+00  1.6902109541637733e+00  1.0893579418050396e+00  2.4989571840264722e+00  1.6921794013259335e+00  4.8902484774855409e-01  2.0550455516091524e+00  1.7359518370946774e+00  4.8951715796886774e-01  4.3380795537225531e-01  2.4760457098300588e+00  6.0490069674213232e-01  9.3958698200036150e-01  9.8447552170941455e-01  2.1185554511474516e+00  2.4218445371097728e+00  1.0244029355414059e+00  1.9843453743775548e+00  2.9554549836939827e+00  8.9673334185765297e-01  8.8401655878623808e-01  1.7048109905644440e+00  2.1065850699513606e+00  3.2048947214056986e+00  2.5792228185172674e+00  2.4367730399728522e+00  4.0153611967290775e-01  4.1038151017089730e-01  3.2130153971913074e+00  4.0039483850855667e-01  3.9787758802836215e-01  9.7891074025815217e-01  1.4094821460378606e+00  4.0822833462940022e-01  9.3183947049307991e-01  6.9028008032644672e-01  3.9688008939918684e-01  1.9901865908695946e+00  1.3888675390167868e+00  1.7067800111675526e+00  2.1209037473474806e+00  4.3273550976381997e-01  4.0678477086431136e-01  2.2558279513542909e+00  4.2568357679013391e-01  3.2738966599277450e+00  4.0860254825500181e-01  4.0566789840485179e-01  2.9282453056418567e+00  3.7648215600472390e-01  2.0722801152926014e+00  9.1358910925792969e-01  1.3852758279257897e+00  1.7733375578109238e+00  9.1561086321527796e-01  1.0413866892880812e+00  1.0796957763295381e+00  1.5183182033123797e+00  1.7996967224023732e+00  1.4602966419366921e+00  1.0549383570503743e+00  3.7851100731207382e-01  3.6228787280664060e-01  3.6426783679981034e-01  3.6206225791086644e-01  9.0612556998163407e-01  2.7535915182855559e+00  7.7437450868254531e-01  8.6735111464594716e-01  3.9014969196024152e-01  3.9383483909106526e-01  3.1224973661433202e+00  1.6922859918046318e+00  3.1064255333727382e+00  9.1894584673218060e-01  1.5476645455165086e+00  3.0898178745609401e+00  3.7910650130107726e-01  1.6825465072020478e+00  1.4103281065936579e+00  1.5379024353669957e+00  1.3825551538568932e+00  8.2833581010908119e-01  1.4011735749573813e+00  8.4868083930092897e-01  8.8233999593642021e-01  2.7297545879264886e+00  3.4605768549866006e-01  9.8394568212257227e-01  3.5513024749310529e-01  3.6916171333235381e-01  9.7153072921417760e-01  1.5208808369480471e+00  1.8701092183654917e+00  1.3853035994124110e+00  3.5900028126969291e-01  2.0748821648530580e+00  1.6457070458477692e+00  2.2814238232725832e+00  1.5594810291720305e+00  1.0311139003506566e+00  1.3044172733949140e+00  2.9463181368600542e+00  1.3342181206485890e+00  1.8293890872239449e+00  3.6312674314683024e-01  8.2984726009261167e-01  2.6705612661550493e+00  1.9693717320651380e+00  1.7449354907399146e+00  2.0422741166992719e+00  8.7013349337464019e-01  8.5233230376960178e-01  3.6544732804317503e-01  3.6264708555263103e-01  3.5014595313673785e-01  2.0639771901405441e+00  8.4684808469504946e-01  1.4210601062028405e+00  1.9732755575726892e+00  3.3140571252238282e-01  2.6052109340279723e+00  8.1840145669987863e-01  7.8838027314491321e-01  8.3087283977688597e-01  1.1374116920596977e+00  3.2667896555034273e+00  1.7531387028305188e+00  2.8478117197383241e+00  2.3015312781217441e+00  2.2772569888274914e+00  2.8703438026897516e+00  2.5494122282781273e+00  2.3126681888570770e+00  3.2681515770057679e-01  1.3584030078540277e+00  1.2109951574376112e+00  1.3610414536448525e+00  3.1108622491690050e+00  4.7435792524398551e-01  1.3152441772297030e+00  3.4001284024916656e-01  1.0067237396718738e+00  2.5787216324532753e+00  1.2342165015115218e+00  2.7399142098783846e+00  4.3139137369505859e-01  3.2915307071257316e+00  2.5723869140216777e+00  1.8654343098082431e+00  1.1593483670826499e+00  7.5143460399353967e-01  2.6795468983097641e+00  1.7052713279536085e+00  1.0556275832225501e+00  3.3684544299712127e-01  4.3411727085392299e-01  8.0449443963056722e-01  1.1529815502404546e+00  2.6613651289031144e+00  1.0211288608759193e+00  1.0801354139898085e+00  3.0543279180085708e-01  1.8506833124729800e+00  1.4451012211868111e+00  3.4378804100318167e-01  1.7242231860246600e+00  2.3107923760158937e+00  3.2348097115312746e-01  3.3621261077297954e-01  1.8706671558039696e+00  1.3363418710874573e+00  1.4457044021487484e+00  2.0559125281493271e+00  7.8369033035040703e-01  1.6180356508829872e+00  3.3280796391180550e-01  3.0202196586161600e-01  7.3006176661073041e-01  1.5633156582142378e+00  2.7581835256732967e+00  2.2631556954089196e+00  2.4370662345873133e+00  1.5423143480120369e+00  3.0218015412699120e+00  7.9079747495935993e-01  3.2101270242338820e-01  3.2699280917138047e+00  3.0143346497932177e-01  2.5572165174887331e+00  1.3935123938287957e+00  2.1087642663198012e+00  7.1594873746074295e-01  1.8121674681236661e+00  7.6352298672175567e-01  1.0716385033594071e+00  6.6898785704368424e-01  3.4164713298473126e-01  2.3964799481999934e+00  7.0994853533341251e-01  2.3174283845910808e+00  5.7450002188834581e-01  2.2486643457812061e+00  3.0692671911127306e-01  1.7277256367116216e+00  2.6585484061193823e+00  3.0772009313634761e+00  1.4290319801274312e+00  3.1801899913638915e-01  8.8141593189717060e-01  2.8298018189712515e+00  8.4383283762467509e-01  1.4635745140371859e+00  2.0982900078730982e+00  2.2289925471481702e+00  2.2530055354958010e+00  3.0530285285059294e-01  2.8952780034908487e-01  4.7071984987346194e-01  4.4072978831103621e-01  1.9666709252965668e+00  1.3024774332142854e+00  6.7203864055483686e-01  1.4103642083755563e+00  3.0769293979291090e-01  1.8286573089485683e+00  6.2837933303913140e-01  1.6316916578934866e+00  2.9639081479518037e-01  8.2862392008626085e-01  7.7880704000215273e-01  2.7916274549492281e+00  3.2475546937126798e+00  1.0016885293197970e+00  1.7421546372592380e+00  1.2904981964969562e+00  2.8602161466252579e-01  2.8188853296270744e-01  1.0973486903686835e+00  1.2353487174931088e+00  1.7720634335324899e+00  1.0884507289248480e+00  2.2393937168223834e+00  2.9170687698693432e-01  2.6313433106015849e-01  6.6600621893983203e-01  2.3555819227907255e+00  4.5926484976275406e-01  1.0141819711100040e+00  1.0730519409235384e+00  2.1695459882137165e+00  1.7933275729100733e+00  1.6605211547155418e+00  9.6983555707255464e-01  1.2542679558116399e+00  1.6207397440885374e+00  1.7537808761506279e+00  2.6930736419545860e+00  2.3066990638633951e+00  2.6132377021669213e+00  6.6334368732983728e-01  1.2251071183933375e+00  2.6568510190034000e-01  2.5585330578242454e-01  7.5716635815071409e-01  1.4203949735138928e+00  9.9894123163804516e-01  2.6270879624760635e-01  7.8588860656585746e-01  2.6146244391254764e-01  2.6321109560305671e+00  1.5277242496209762e+00  2.9176536863882302e-01  1.5089192567734795e+00  3.1224302487878215e+00  3.1549140651622007e+00  3.2445991874250790e+00  3.5356785236991811e-01  6.1689905262886102e-01  6.6316744676271755e-01  1.9002797832727836e+00  7.6175372646341544e-01  1.2222714712447014e+00  2.2302211598464288e+00  2.5316409902642567e-01  1.3037744581168460e+00  2.4601897359296117e+00  2.2133889634477613e+00  1.1677341466628914e+00  2.6082871471077934e-01  2.3786030815990133e-01  2.7597858667900499e-01  7.6001865904129606e-01  1.5168096710087389e+00  3.5870745052536557e-01  1.6280036043711004e+00  2.3442174171365893e+00  1.3951272601416087e+00  2.4835271834456829e-01  2.1683181828835982e+00  2.2042352461135768e+00  1.6790779063958607e+00  1.2626567126428732e+00  2.5422020527150018e+00  1.3167570731768663e+00  1.1344424246103226e+00  2.6097980038440185e+00  2.3242136770153552e+00  2.6252394770111782e+00  2.9556786107111792e+00  2.6744973481088663e+00  1.1710450181090057e+00  1.5086718217965089e+00  1.9486864977116827e+00  2.6500180984547326e+00  2.9531192013499852e+00  2.9440552337106682e+00  1.0481448895224190e+00  2.3922428272027898e+00  1.9172252022644849e+00  7.6219417068240347e-01  7.9279941126113118e-01  3.1259145181863515e+00  8.4716495661726443e-01  7.7566432391135998e-01  6.1844229872951717e-01  2.3224348028242039e-01  6.3453731423843596e-01  1.3972156276842780e+00  1.0054941745838479e+00  2.5477746675258084e-01  2.7869658167500871e-01  1.9682559866484117e+00  2.4636751200611973e-01  1.0703662177601707e+00  1.4265411670824639e+00  1.6419276925486488e+00  8.9322823399831719e-01  1.6030689992766294e+00  2.4663594325215710e-01  7.1223453348707710e-01  2.3325493215197193e-01  3.2517042643903165e+00  3.0264393953514359e+00  2.6525806725853407e-01  9.2281531809149242e-01  1.0204663480305620e+00  5.8110814478370032e-01  2.5613040970224399e-01  2.4819135358341740e-01  2.4293220937135490e-01  5.9964595403615006e-01  1.4304001939721438e+00  1.0741394228415193e+00  2.3462381209468869e-01  2.4683599081506388e-01  1.9111221916350944e+00  7.4857579167274257e-01  7.1326053765444852e-01  3.1657937265740417e+00  3.2694204037093697e+00  3.2219080499265726e+00  2.7936895885702957e+00  2.0982044098689494e+00  1.4406685352551547e+00  1.9247645130581155e+00  1.8280283795969090e+00  6.0805152609863167e-01  1.1252628405042222e+00  8.2807050767194712e-01  6.4821755439895457e-01  5.7551579291566390e-01  6.1552882690618094e-01  6.4781953534592518e-01  2.3867080997450341e-01  2.3225026468639522e+00  1.8669362657437811e+00  1.6998022003619258e+00  8.6601669139256010e-01  5.7694696350935304e-01  6.3990354835954499e-01  1.2984259045599782e+00  1.2017790281460945e+00  2.2956553732136142e+00  1.9349152782098995e+00  8.2925526573086772e-01  2.2523205822513876e+00  1.8263633673665154e+00  2.5009053668113002e-01  2.5729301774805209e+00  9.0611955816143863e-01  1.1944011629737903e+00  2.2269832032482091e+00  1.0749534762694808e+00  1.8638979881835425e+00  1.2276453670874021e+00  8.4448237912810931e-01  1.9063847822834497e+00  2.8511922824878941e+00  5.4644998453511839e-01  2.4125038722548311e-01  9.2883779501184283e-01  1.3873986637665305e+00  3.2963109484114224e+00  1.4336451635909917e+00  1.4579681546849941e+00  5.9022928647847117e-01  9.1570639118365715e-01  1.5767140473158558e+00  6.2225010627568744e-01  1.2062425996851713e+00  8.3806329272450863e-01  5.2595739750865111e-01  1.3487908420416876e+00  8.0440360006479039e-01  5.7639478654930842e-01  9.6573265631343097e-01  5.7083295794227162e-01  1.5407038078289257e+00  2.1926117612532073e-01  2.4641599481048856e-01  5.4388012765785010e-01  1.1462422100591190e+00  2.0832722861849020e+00  1.6240651479662254e+00  3.2684094222096016e+00  1.5403997847462403e+00  1.1101533902716518e+00  2.9070623861750247e+00  7.9760728214435817e-01  1.1566606454834711e+00  6.0319000107112331e-01  1.9237519532526024e+00  4.9828980844381909e-01  2.3515268039401210e-01  5.7660989990896261e-01  6.6326432576591732e-01  6.2339145714012190e-01  3.1360179947415365e+00  6.4796160328300034e-01  2.2983247688323505e-01  2.3194429438882719e-01  1.7014179205543185e+00  8.7572134493727449e-01  1.1585076901988081e+00  5.5059737383774388e-01  2.7808165982616955e+00  2.9197085338799118e+00  2.0926360570230638e+00  3.2541830697675240e+00  2.0308465179600296e-01  1.0272411026511559e+00  3.2162963551062189e+00  3.1982173275642927e+00  6.6050975022636738e-01  2.6549133160951017e+00  1.8854270509427042e+00  2.4851001349881701e+00  1.4455047875822680e+00  1.6134498169792164e+00  9.1335671813196284e-01  9.9788360238504359e-01  1.9151961975648695e+00  1.8050711991315189e+00  2.4496669114098135e+00  3.0415268861153877e-01  5.6134118259682175e-01  9.5999328554300534e-01  9.3840593644654169e-01  9.3107180708317849e-01  1.7187425104891421e+00  2.8825454815957139e+00  1.9137089796292754e+00  3.0018765259222220e+00  2.3087947353222038e+00  1.9574685455105671e+00  1.5233292840761965e+00  2.5435127739505705e+00  1.9119065729060192e+00  3.0209184617434572e+00  2.6867959179771157e+00  2.4458864379136052e+00  1.2251627299866230e+00  2.2626472826032846e+00  2.0543289145730248e+00  2.7361239002714579e+00  1.7873939441439570e+00  1.7674883247326800e+00  1.5486486099759171e+00  1.8693293893914857e+00  1.4856485062490139e+00  2.7446210246091174e+00  2.0318294170092660e-01  2.5334935457344482e-01  2.1144458378809179e+00  3.0548601682701118e+00  2.2801464770276829e+00  1.4059749348180643e+00  1.1716570928857348e+00  2.0084237136729297e+00  1.0953282225750223e+00  1.2020674516825844e+00  1.5707296111432472e+00  1.2475487798198264e+00  2.1960052822414552e-01  1.3858126199507566e+00  3.2843705650266113e+00  2.7040630784931143e+00  3.8939996492453921e-01  2.3551673818604307e-01  7.9802104929132012e-01  2.3893815523793138e-01  5.5099435278051334e-01  1.0472395425083714e+00  1.6185013863233819e+00  1.8459967551312371e+00  2.4462811419733681e+00  2.1294261313673571e-01  6.0491957064232427e-01  2.4922485526291452e-01  2.0540629268936719e-01  3.2561475310834118e+00  2.2510696176461970e-01  1.5006053248878748e+00  1.8747108895794580e+00  1.6434230093733764e+00  5.1338708399736821e-01  5.0699931942500587e-01  1.0966396587012914e+00  1.2872231538671781e+00  1.4257425105612394e+00  2.1477064921181745e+00  2.0552291266376823e+00  2.2553506395697815e+00  8.9563914317587134e-01  3.0036523123131453e-01  2.0042935935438284e+00  2.2990586211662429e+00  2.2243476000463716e+00  2.5564803380030341e+00  1.5387885592112236e+00  1.6358757651452480e+00  1.8944690486140274e+00  7.0856563626590674e-01  1.2858376460014567e+00  9.3721079918553862e-01  2.1915690972054755e+00  2.5075926064215903e-01  1.5613187830856448e+00  3.0471555491271576e+00  3.2612295393085757e+00  9.3266638554704306e-01  2.4359018334516920e+00  1.8534777821421453e-01  2.2445827067714634e+00  8.1962796229537305e-01  1.2982591073920968e+00  1.0076321412461151e+00  5.4250803326869901e-01  8.83155