<?xml version="1.0"?>
<VTKFile type="UnstructuredGrid"  version="0.1"  >
<UnstructuredGrid>
<Piece  NumberOfPoints="18071" NumberOfCells="35544">
<Points>
<DataArray  type="Float64"  NumberOfComponents="3"  format="ascii">0.9486832980505138 0 0  0.9484724340806782 0.02000104469955538 0  0.9478399359086995 0.03999319812908447 0  0.9467860847054931 0.0599675729710886 0  0.9453113489503684 0.07991528981136745 0  0.9434163842227721 0.09982748108627622 0  0.9411020329108563 0.119695295024715 0  0.938369323837003 0.1395098995830973 0  0.9352194718004709 0.1592624863715497 0  0.931653877037369 0.1789442745695953 0  0.9276741245981944 0.1985465148295827 0  0.9232819836432135 0.2180604931661231 0  0.9184794066559997 0.2374775348298079 0  0.9132685285754754 0.2567890081634844 0  0.9076516658468453 0.2759863284393749 0  0.9016313153918442 0.2950609616753339 0  0.8952101534987531 0.3140044284285474 0  0.8883910346326832 0.3328083075649862 0  0.8811769901666499 0.3514642400029395 0  0.873571227034005 0.3699639324289635 0  0.8655771263028276 0.3882991609845931 0  0.8571982416729006 0.4064617749221782 0  0.8484382978959503 0.4244437002282196 0  0.8393011891198424 0.4422369432125932 0  0.829790977157478 0.459833594062067 0  0.8199118896811526 0.477225830356532 0  0.8096683183431869 0.4944059205463824 0  0.7990648168236594 0.5113662273895018 0  0.7881060988061126 0.5280992113463244 0  0.7767970358821309 0.5445974339314641 0  0.7651426553857218 0.5608535610204205 0  0.753148138158463 0.5768603661098937 0  0.7408188162464108 0.5926107335302548 0  0.7281601705297891 0.6080976616087488 0  0.7151778282865192 0.6233142657820195 0  0.7018775606906669 0.6382537816565753 0  0.6882652802469232 0.652909568015835 0  0.6743470381622587 0.6672751097724156 0  0.6601290216559174 0.6813440208643511 0  0.6456175512089487 0.6951100470939552 0  0.6308190777544996 0.7085670689080622 0  0.6157401798101144 0.7217091041184169 0  0.6003875605533189 0.734530310560997 0  0.584768044841788 0.7470249886930909 0  0.5688885761794213 0.7591875841269735 0  0.5527562136296766 0.7710126900990562 0  0.5363781286775311 0.7824950498734097 0  0.5197616020414676 0.7936295590785962 0  0.5029140204369025 0.8044112679767674 0  0.4858428732924924 0.8148353836640227 0  0.4685557494207815 0.8248972722010478 0  0.4510603336446699 0.8345924606730875 0  0.4333644033811983 0.8439166391783361 0  0.4154758251841748 0.8528656627438631 0  0.3974025512471733 0.8614355531682203 0  0.379152615868464 0.8696225007899122 0  0.3607341318794444 0.8774228661809444 0  0.342155287038158 0.8848331817646961 0  0.3234243403895067 0.8918501533573969 0  0.3045496185937731 0.898470661632525 0  0.2855395122250832 0.904691763507473 0  0.2664024720414594 0.9105106934518669 0  0.2471470052281184 0.915924864716955 0  0.2277816716156831 0.9209318704855235 0  0.2083150798749952 0.925529484941822 0  0.1887558836902123 0.9297156642610294 0  0.1691127779118977 0.9334885475178156 0  0.1493944946918097 0.9368464575135985 0  0.1296097996011066 0.9397879015221259 0  0.1097674877336993 0.9423115719530522 0  0.08987637979647611 0.9444163469332154 0  0.06994531818814397 0.9461012908053551 0  0.04998316306842656 0.9473656545440494 0  0.02999878841936526 0.9482088760886865 0  0.01000107810047723 0.9486305805933245 0  -0.01000107810047732 0.9486305805933245 0  -0.02999878841936514 0.9482088760886865 0  -0.04998316306842644 0.9473656545440494 0  -0.06994531818814406 0.9461012908053551 0  -0.08987637979647599 0.9444163469332155 0  -0.1097674877336992 0.9423115719530522 0  -0.1296097996011065 0.9397879015221259 0  -0.1493944946918096 0.9368464575135985 0  -0.1691127779118979 0.9334885475178156 0  -0.1887558836902122 0.9297156642610294 0  -0.2083150798749951 0.925529484941822 0  -0.227781671615683 0.9209318704855235 0  -0.247147005228118 0.9159248647169551 0  -0.2664024720414591 0.9105106934518669 0  -0.2855395122250831 0.904691763507473 0  -0.3045496185937729 0.8984706616325251 0  -0.3234243403895066 0.8918501533573969 0  -0.3421552870381577 0.8848331817646962 0  -0.3607341318794441 0.8774228661809446 0  -0.3791526158684641 0.8696225007899122 0  -0.3974025512471734 0.8614355531682203 0  -0.4154758251841746 0.8528656627438632 0  -0.4333644033811984 0.8439166391783361 0  -0.4510603336446696 0.8345924606730876 0  -0.4685557494207815 0.8248972722010479 0  -0.4858428732924923 0.8148353836640227 0  -0.5029140204369026 0.8044112679767673 0  -0.5197616020414676 0.7936295590785962 0  -0.536378128677531 0.7824950498734098 0  -0.5527562136296768 0.7710126900990562 0  -0.5688885761794211 0.7591875841269737 0  -0.5847680448417879 0.747024988693091 0  -0.6003875605533187 0.7345303105609973 0  -0.6157401798101142 0.721709104118417 0  -0.6308190777544995 0.7085670689080623 0  -0.6456175512089487 0.6951100470939551 0  -0.6601290216559171 0.6813440208643513 0  -0.6743470381622587 0.6672751097724156 0  -0.688265280246923 0.6529095680158352 0  -0.7018775606906668 0.6382537816565753 0  -0.7151778282865192 0.6233142657820195 0  -0.7281601705297891 0.6080976616087488 0  -0.7408188162464107 0.592610733530255 0  -0.753148138158463 0.5768603661098938 0  -0.7651426553857216 0.5608535610204208 0  -0.7767970358821308 0.5445974339314642 0  -0.7881060988061125 0.5280992113463245 0  -0.7990648168236594 0.5113662273895018 0  -0.8096683183431868 0.4944059205463825 0  -0.8199118896811526 0.477225830356532 0  -0.8297909771574777 0.4598335940620675 0  -0.8393011891198424 0.4422369432125932 0  -0.8484382978959502 0.4244437002282198 0  -0.8571982416729006 0.4064617749221782 0  -0.8655771263028273 0.3882991609845933 0  -0.873571227034005 0.3699639324289636 0  -0.8811769901666499 0.3514642400029395 0  -0.8883910346326833 0.332808307564986 0  -0.8952101534987531 0.3140044284285475 0  -0.9016313153918442 0.295060961675334 0  -0.9076516658468452 0.2759863284393752 0  -0.9132685285754755 0.2567890081634842 0  -0.9184794066559997 0.237477534829808 0  -0.9232819836432135 0.218060493166123 0  -0.9276741245981943 0.1985465148295829 0  -0.931653877037369 0.1789442745695954 0  -0.9352194718004709 0.15926248637155 0  -0.938369323837003 0.1395098995830971 0  -0.9411020329108563 0.1196952950247151 0  -0.9434163842227721 0.09982748108627618 0  -0.9453113489503684 0.07991528981136768 0  -0.9467860847054931 0.05996757297108869 0  -0.9478399359086995 0.03999319812908442 0  -0.9484724340806782 0.02000104469955522 0  -0.9486832980505138 1.161801964362116e-16 0  -0.9484724340806782 -0.02000104469955541 0  -0.9478399359086995 -0.0399931981290842 0  -0.9467860847054931 -0.05996757297108847 0  -0.9453113489503684 -0.07991528981136745 0  -0.9434163842227721 -0.09982748108627594 0  -0.9411020329108563 -0.1196952950247148 0  -0.938369323837003 -0.1395098995830973 0  -0.935219471800471 -0.1592624863715494 0  -0.9316538770373691 -0.1789442745695952 0  -0.9276741245981944 -0.1985465148295827 0  -0.9232819836432136 -0.2180604931661228 0  -0.9184794066559998 -0.2374775348298077 0  -0.9132685285754755 -0.256789008163484 0  -0.9076516658468454 -0.2759863284393745 0  -0.9016313153918442 -0.2950609616753337 0  -0.8952101534987533 -0.3140044284285469 0  -0.8883910346326832 -0.3328083075649862 0  -0.8811769901666497 -0.3514642400029397 0  -0.8735712270340051 -0.3699639324289634 0  -0.8655771263028275 -0.3882991609845931 0  -0.8571982416729007 -0.406461774922178 0  -0.8484382978959503 -0.4244437002282196 0  -0.8393011891198425 -0.4422369432125929 0  -0.8297909771574781 -0.4598335940620669 0  -0.8199118896811529 -0.4772258303565314 0  -0.8096683183431871 -0.494405920546382 0  -0.7990648168236597 -0.5113662273895012 0  -0.7881060988061124 -0.5280992113463246 0  -0.7767970358821309 -0.544597433931464 0  -0.7651426553857217 -0.5608535610204206 0  -0.7531481381584632 -0.5768603661098936 0  -0.7408188162464108 -0.5926107335302547 0  -0.7281601705297893 -0.6080976616087486 0  -0.7151778282865193 -0.6233142657820193 0  -0.7018775606906672 -0.638253781656575 0  -0.6882652802469235 -0.6529095680158347 0  -0.674347038162259 -0.6672751097724151 0  -0.660129021655917 -0.6813440208643514 0  -0.6456175512089486 -0.6951100470939552 0  -0.6308190777544994 -0.7085670689080624 0  -0.6157401798101141 -0.7217091041184172 0  -0.6003875605533191 -0.7345303105609969 0  -0.5847680448417881 -0.7470249886930909 0  -0.5688885761794213 -0.7591875841269736 0  -0.5527562136296765 -0.7710126900990563 0  -0.5363781286775317 -0.7824950498734093 0  -0.519761602041468 -0.7936295590785959 0  -0.5029140204369028 -0.8044112679767672 0  -0.4858428732924925 -0.8148353836640226 0  -0.4685557494207817 -0.8248972722010478 0  -0.4510603336446699 -0.8345924606730875 0  -0.4333644033811982 -0.8439166391783361 0  -0.4154758251841745 -0.8528656627438633 0  -0.3974025512471736 -0.8614355531682203 0  -0.3791526158684643 -0.8696225007899121 0  -0.3607341318794445 -0.8774228661809444 0  -0.342155287038158 -0.8848331817646962 0  -0.3234243403895075 -0.8918501533573966 0  -0.3045496185937727 -0.8984706616325251 0  -0.2855395122250827 -0.9046917635074732 0  -0.2664024720414597 -0.9105106934518667 0  -0.2471470052281185 -0.915924864716955 0  -0.2277816716156832 -0.9209318704855235 0  -0.2083150798749951 -0.925529484941822 0  -0.1887558836902128 -0.9297156642610293 0  -0.1691127779118983 -0.9334885475178155 0  -0.14939449469181 -0.9368464575135985 0  -0.1296097996011069 -0.9397879015221258 0  -0.1097674877336994 -0.942311571953052 0  -0.08987637979647602 -0.9444163469332154 0  -0.06994531818814387 -0.9461012908053551 0  -0.04998316306842625 -0.9473656545440494 0  -0.02999878841936558 -0.9482088760886865 0  -0.01000107810047755 -0.9486305805933245 0  0.0100010781004772 -0.9486305805933245 0  0.02999878841936524 -0.9482088760886865 0  0.04998316306842591 -0.9473656545440494 0  0.06994531818814352 -0.9461012908053552 0  0.08987637979647567 -0.9444163469332155 0  0.1097674877336991 -0.9423115719530522 0  0.1296097996011066 -0.9397879015221259 0  0.1493944946918097 -0.9368464575135985 0  0.1691127779118979 -0.9334885475178156 0  0.1887558836902125 -0.929715
[...]
<PointData  Scalars="f_29-2"> 
<DataArray  type="Float64"  Name="f_29-2"  format="ascii">0.0000000000000000e+00  0.0000000000000000e+00  0.0000000000000000e+00  0.0000000000000000e+00  0.0000000000000000e+00  0.0000000000000000e+00  0.0000000000000000e+00  0.0000000000000000e+00  0.0000000000000000e+00  0.0000000000000000e+00  0.0000000000000000e+00  0.0000000000000000e+00  0.0000000000000000e+00  0.0000000000000000e+00  0.0000000000000000e+00  0.0000000000000000e+00  0.0000000000000000e+00  0.0000000000000000e+00  0.0000000000000000e+00  0.0000000000000000e+00  0.0000000000000000e+00  0.0000000000000000e+00  0.0000000000000000e+00  0.0000000000000000e+00  0.0000000000000000e+00  0.0000000000000000e+00  0.0000000000000000e+00  0.0000000000000000e+00  0.0000000000000000e+00  0.0000000000000000e+00  0.0000000000000000e+00  0.0000000000000000e+00  0.0000000000000000e+00  0.0000000000000000e+00  0.0000000000000000e+00  0.0000000000000000e+00  0.0000000000000000e+00  0.0000000000000000e+00  0.0000000000000000e+00  0.0000000000000000e+00  0.0000000000000000e+00  0.0000000000000000e+00  0.0000000000000000e+00  0.0000000000000000e+00  0.0000000000000000e+00  0.0000000000000000e+00  0.0000000000000000e+00  0.0000000000000000e+00  0.0000000000000000e+00  0.0000000000000000e+00  0.0000000000000000e+00  0.0000000000000000e+00  0.0000000000000000e+00  0.0000000000000000e+00  0.0000000000000000e+00  0.0000000000000000e+00  0.0000000000000000e+00  0.0000000000000000e+00  0.0000000000000000e+00  0.0000000000000000e+00  0.0000000000000000e+00  0.0000000000000000e+00  0.0000000000000000e+00  0.0000000000000000e+00  0.0000000000000000e+00  0.0000000000000000e+00  0.0000000000000000e+00  0.0000000000000000e+00  0.0000000000000000e+00  0.0000000000000000e+00  0.0000000000000000e+00  0.0000000000000000e+00  0.0000000000000000e+00  0.0000000000000000e+00  0.0000000000000000e+00  0.0000000000000000e+00  0.0000000000000000e+00  0.0000000000000000e+00  0.0000000000000000e+00  0.0000000000000000e+00  0.0000000000000000e+00  0.0000000000000000e+00  0.0000000000000000e+00  0.0000000000000000e+00  0.0000000000000000e+00  0.0000000000000000e+00  0.0000000000000000e+00  0.0000000000000000e+00  0.0000000000000000e+00  0.0000000000000000e+00  0.0000000000000000e+00  0.0000000000000000e+00  0.0000000000000000e+00  0.0000000000000000e+00  0.0000000000000000e+00  0.0000000000000000e+00  0.0000000000000000e+00  0.0000000000000000e+00  0.0000000000000000e+00  0.0000000000000000e+00  0.0000000000000000e+00  0.0000000000000000e+00  0.0000000000000000e+00  0.0000000000000000e+00  0.0000000000000000e+00  0.0000000000000000e+00  0.0000000000000000e+00  0.0000000000000000e+00  0.0000000000000000e+00  0.0000000000000000e+00  0.0000000000000000e+00  0.0000000000000000e+00  0.0000000000000000e+00  0.0000000000000000e+00  0.0000000000000000e+00  0.0000000000000000e+00  0.0000000000000000e+00  0.0000000000000000e+00  0.0000000000000000e+00  0.0000000000000000e+00  0.0000000000000000e+00  0.0000000000000000e+00  0.0000000000000000e+00  0.0000000000000000e+00  0.0000000000000000e+00  0.0000000000000000e+00  0.0000000000000000e+00  0.0000000000000000e+00  0.0000000000000000e+00  0.0000000000000000e+00  0.0000000000000000e+00  0.0000000000000000e+00  0.0000000000000000e+00  0.0000000000000000e+00  0.0000000000000000e+00  0.0000000000000000e+00  0.0000000000000000e+00  0.0000000000000000e+00  0.0000000000000000e+00  0.0000000000000000e+00  0.0000000000000000e+00  0.0000000000000000e+00  0.0000000000000000e+00  0.0000000000000000e+00  0.0000000000000000e+00  0.0000000000000000e+00  0.0000000000000000e+00  0.0000000000000000e+00  0.0000000000000000e+00  0.0000000000000000e+00  0.0000000000000000e+00  0.0000000000000000e+00  0.0000000000000000e+00  0.0000000000000000e+00  0.0000000000000000e+00  0.0000000000000000e+00  0.0000000000000000e+00  0.0000000000000000e+00  0.0000000000000000e+00  0.0000000000000000e+00  0.0000000000000000e+00  0.0000000000000000e+00  0.0000000000000000e+00  0.0000000000000000e+00  0.0000000000000000e+00  0.0000000000000000e+00  0.0000000000000000e+00  0.0000000000000000e+00  0.0000000000000000e+00  0.0000000000000000e+00  0.0000000000000000e+00  0.0000000000000000e+00  0.0000000000000000e+00  0.0000000000000000e+00  0.0000000000000000e+00  0.0000000000000000e+00  0.0000000000000000e+00  0.0000000000000000e+00  0.0000000000000000e+00  0.0000000000000000e+00  0.0000000000000000e+00  0.0000000000000000e+00  0.0000000000000000e+00  0.0000000000000000e+00  0.0000000000000000e+00  0.0000000000000000e+00  0.0000000000000000e+00  0.0000000000000000e+00  0.0000000000000000e+00  0.0000000000000000e+00  0.0000000000000000e+00  0.0000000000000000e+00  0.0000000000000000e+00  0.0000000000000000e+00  0.0000000000000000e+00  0.0000000000000000e+00  0.0000000000000000e+00  0.0000000000000000e+00  0.0000000000000000e+00  0.0000000000000000e+00  0.0000000000000000e+00  0.0000000000000000e+00  0.0000000000000000e+00  0.0000000000000000e+00  0.0000000000000000e+00  0.0000000000000000e+00  0.0000000000000000e+00  0.0000000000000000e+00  0.0000000000000000e+00  0.0000000000000000e+00  0.0000000000000000e+00  0.0000000000000000e+00  0.0000000000000000e+00  0.0000000000000000e+00  0.0000000000000000e+00  0.0000000000000000e+00  0.0000000000000000e+00  0.0000000000000000e+00  0.0000000000000000e+00  0.0000000000000000e+00  0.0000000000000000e+00  0.0000000000000000e+00  0.0000000000000000e+00  0.0000000000000000e+00  0.0000000000000000e+00  0.0000000000000000e+00  0.0000000000000000e+00  0.0000000000000000e+00  0.0000000000000000e+00  0.0000000000000000e+00  0.0000000000000000e+00  0.0000000000000000e+00  0.0000000000000000e+00  0.0000000000000000e+00  0.0000000000000000e+00  0.0000000000000000e+00  0.0000000000000000e+00  0.0000000000000000e+00  0.0000000000000000e+00  0.0000000000000000e+00  0.0000000000000000e+00  0.0000000000000000e+00  0.0000000000000000e+00  0.0000000000000000e+00  0.0000000000000000e+00  0.0000000000000000e+00  0.0000000000000000e+00  0.0000000000000000e+00  0.0000000000000000e+00  0.0000000000000000e+00  0.0000000000000000e+00  0.0000000000000000e+00  0.0000000000000000e+00  0.0000000000000000e+00  0.0000000000000000e+00  0.0000000000000000e+00  0.0000000000000000e+00  0.0000000000000000e+00  0.0000000000000000e+00  0.0000000000000000e+00  0.0000000000000000e+00  0.0000000000000000e+00  0.0000000000000000e+00  0.0000000000000000e+00  0.0000000000000000e+00  0.0000000000000000e+00  0.0000000000000000e+00  0.0000000000000000e+00  0.0000000000000000e+00  0.0000000000000000e+00  0.0000000000000000e+00  0.0000000000000000e+00  0.0000000000000000e+00  0.0000000000000000e+00  0.0000000000000000e+00  0.0000000000000000e+00  0.0000000000000000e+00  0.0000000000000000e+00  0.0000000000000000e+00  0.0000000000000000e+00  0.0000000000000000e+00  0.0000000000000000e+00  0.0000000000000000e+00  0.0000000000000000e+00  0.0000000000000000e+00  0.0000000000000000e+00  0.0000000000000000e+00  0.0000000000000000e+00  0.0000000000000000e+00  0.0000000000000000e+00  0.0000000000000000e+00  0.0000000000000000e+00  0.0000000000000000e+00  0.0000000000000000e+00  0.0000000000000000e+00  0.0000000000000000e+00  0.0000000000000000e+00  0.0000000000000000e+00  1.2447516548842701e+00  9.3399121986110989e-01  9.3392108716396183e-01  9.3394010630252078e-01  9.3396763156642848e-01  9.1306428365322911e-01  8.7940940854144656e-01  7.4860914888141261e-01  7.4853644660051821e-01  6.8537070332908578e-01  6.8224672250665042e-01  6.6175251822098591e-01  6.5324795446421036e-01  1.1271645869094107e+00  1.1271582396671656e+00  1.1397070179259170e+00  5.8099656897933083e-01  5.8095852002623039e-01  5.8514543496945726e-01  5.8097056806414660e-01  1.1409990991783543e+00  1.1198286968832540e+00  5.5748849099035536e-01  5.5848913630430685e-01  1.0835678510559281e+00  5.4577907580743812e-01  5.2831326774718546e-01  5.7047186453174026e-01  5.8359438954816656e-01  5.2597346295413638e-01  9.4083013679576943e-01  6.6091119624338546e-01  4.4250331017760786e-01  4.4250826178838909e-01  4.4633676054434163e-01  4.4251234171403458e-01  9.5209117501762575e-01  8.5850579802081661e-01  8.5842245938839279e-01  9.5618867878274461e-01  8.6441846872037731e-01  1.1956015892714649e+00  1.2002239211526213e+00  9.3445298051353032e-01  4.1048311528219700e-01  4.0131712081641618e-01  4.0903994114178710e-01  4.0228488934718221e-01  6.7728065939782500e-01  3.9905075741514484e-01  3.9939691576284242e-01  3.7990457101740643e-01  3.8852547437240592e-01  8.7758021528284225e-01  8.0349384117451028e-01  9.0844521618920870e-01  3.7828837155325540e-01  3.7792241944002464e-01  1.1147222359052009e+00  9.7045672120358317e-01  1.2119265904534615e+00  1.2062548346638453e+00  1.1908066060745019e+00  7.7469772325536446e-01  1.0943856326428305e+00  3.8866015000234544e-01  1.0415070019249628e+00  1.0869555661382044e+00  3.7472039359352088e-01  3.5674748842789905e-01  7.4956656345818518e-01  8.4035047765519744e-01  3.4941537965706665e-01  1.0868263198346808e+00  1.2151098552276605e+00  1.0371533729210856e+00  1.0263326538308946e+00  1.0582948347055532e+00  1.0317140789614325e+00  7.8330170192768966e-01  3.3362888306525512e-01  3.3057156986104974e-01  3.3049967580816042e-01  6.8941878790486466e-01  3.3121885174788179e-01  3.5297785451103098e-01  8.1082366126918481e-01  7.1344066624402613e-01  3.2040079342726902e-01  1.0206997943014593e+00  7.7375738845374653e-01  8.1621793640366169e-01  6.7457088924585240e-01  3.1179727720515144e-01  9.6037025084359595e-01  6.7559369917703260e-01  6.7555572873794190e-01  3.0971546627851870e-01  1.0245309488354690e+00  3.1062164754273308e-01  7.2975525079989711e-01  3.1095796424526506e-01  6.4439545583518665e-01  7.7774222145255889e-01  7.5053737008048149e-01  1.1466526117095277e+00  1.0510644778281992e+00  1.0308500046565057e+00  2.9772831826266377e-01  6.1769384454646237e-01  2.8513164475310676e-01  1.0139157786240665e+00  7.1896420197032918e-01  8.0437925061162874e-01  3.1180522932551930e-01  6.2328842943205154e-01  1.2018969319489825e+00  8.0935479541464006e-01  5.4714893075899262e-01  6.2869570473258096e-01  3.2848351530423436e-01  3.0657239421004928e-01  5.4503614568022152e-01  9.0133321256246024e-01  1.1403142544058131e+00  7.4641358833037552e-01  5.9409749325311367e-01  1.1335678997571217e+00  2.8086732159047761e-01  5.9771289149841411e-01  3.7433695455132332e-01  2.9257576715139155e-01  5.6549536650896204e-01  9.1143819337348431e-01  2.8290159403484261e-01  2.8589746118915782e-01  2.7221121658471481e-01  2.7119979900818936e-01  7.0543919196367855e-01  1.1998626146739870e+00  4.5396829337886824e-01  9.9258627372417840e-01  5.8562203913513800e-01  1.1239610763091237e+00  4.9814371436576427e-01  1.2308705508537834e+00  5.5552685310046401e-01  1.0603666054514620e+00  2.4612250198645813e-01  3.7398201213889209e-01  2.7114154756925157e-01  8.8732123744042923e-01  8.0695187810183899e-01  1.0532778132135663e+00  8.1965197946249990e-01  2.4517227157046295e-01  2.4681326112012178e-01  2.4016003732001936e-01  2.4007299444664662e-01  4.9910213357105654e-01  7.7597789481010060e-01  1.1593161614945684e+00  5.1590416681711448e-01  4.8049651436044916e-01  6.8524443284144332e-01  8.2009638799485463e-01  5.7408431257361359e-01  8.6248582527234086e-01  9.7855865638166106e-01  1.2320960536633800e+00  1.1622416989689131e+00  5.2598098553161721e-01  8.0998065866040903e-01  2.5191641188817138e-01  1.1339138285501120e+00  1.0561332082918236e+00  9.4284223240323017e-01  5.2444814755264535e-01  1.0359345099917994e+00  5.5063550113023663e-01  8.6454576308118658e-01  9.4644825774540997e-01  5.1343659112833107e-01  8.3488780214943770e-01  4.8371204856390193e-01  5.4967750147702044e-01  1.1594200083062296e+00  1.2323453709688652e+00  1.1659090291439655e+00  2.2525494831161419e-01  2.3430684881957878e-01  9.1535799778136540e-01  2.2662999312284746e-01  2.4497323410001942e-01  9.0005576323356773e-01  8.1085853946824815e-01  7.3348286646352090e-01  8.1081990647337820e-01  7.2266938034161321e-01  9.4080923136223271e-01  7.3297377426501997e-01  5.6243186864285089e-01  2.2755564301898568e-01  2.1828768563602960e-01  2.1862875580881452e-01  4.9603785438364084e-01  8.3895976700127473e-01  4.9757790221010917e-01  4.7893639142041250e-01  2.2046631545877776e-01  2.1913628767760640e-01  9.6618426931393098e-01  1.0531962309162255e+00  2.1869379778558812e-01  1.0351462206127537e+00  1.0296308886997805e+00  1.1126564278366113e+00  2.1089292845696181e-01  9.2785907220843900e-01  2.1601446532705373e-01  1.2350189756696648e+00  6.6314230520494710e-01  2.3531442354579785e-01  2.2332663405912345e-01  2.1128952020284589e-01  1.0131164510154991e+00  2.0757247265334847e-01  2.7355225735644284e-01  4.2125900814214812e-01  2.3007683535579404e-01  2.0617651661790226e-01  5.5725789901354184e-01  4.5099097683985762e-01  4.6669718150243761e-01  4.4665032635245450e-01  2.1593442215848671e-01  6.0106706740467608e-01  2.2436497305276551e-01  4.1645803057740799e-01  2.0213685195536524e-01  1.1735826242343210e+00  1.1934086845110030e+00  4.6106972614698066e-01  4.8264288638257880e-01  7.8984959006893563e-01  1.1941851563969779e+00  5.7303365515826621e-01  9.7729564776767375e-01  9.3315338482873844e-01  1.1705172670395882e+00  5.0931797003008394e-01  7.5294940309658243e-01  6.9163775201737765e-01  5.2337824693307333e-01  2.0235641082905811e-01  2.1229721268738896e-01  2.0216818352613519e-01  2.5135147214324410e-01  9.3707105682244973e-01  9.4043446916895879e-01  7.2142478520545594e-01  2.0691267787629067e-01  7.1399088241833442e-01  1.0470551746715542e+00  2.0238104998720394e-01  8.2368703750844363e-01  1.0904742679452171e+00  1.0855110167529105e+00  1.2138373037619949e+00  1.1456076136870934e+00  7.1488961090084702e-01  1.2365668844009849e+00  2.0635747421416883e-01  1.0996339871891676e+00  8.6751063395263106e-01  9.4869697730103320e-01  7.9532550362038967e-01  7.4812036899166867e-01  7.6613557092766427e-01  2.0786073972470304e-01  1.1290028920381219e+00  5.3779958348171053e-01  9.6483151181479276e-01  6.5859042620139807e-01  8.2270980453438936e-01  1.0249346088041906e+00  1.0269744530800620e+00  1.0997357602472639e+00  2.4736122136130945e-01  1.0846565344457157e+00  5.9966821264151848e-01  1.1521954488392550e+00  7.1183719123495381e-01  6.4988833053964012e-01  1.2324582619159548e+00  1.0123907633165943e+00  4.7950038944658885e-01  6.8778663414668906e-01  5.4709244189671602e-01  1.1764339350091879e+00  4.2642814347260066e-01  8.8250817609021170e-01  5.8680113206710494e-01  1.8869540187610398e-01  1.8485167062988525e-01  1.2051846192557649e+00  6.4800640219644468e-01  1.9625145673340025e-01  4.3557226160580859e-01  4.7177478613726359e-01  1.9503738632036752e-01  4.3347226506083619e-01  1.8915564649016930e-01  1.9245722323619555e-01  1.0936815933792723e+00  1.8345608387103449e-01  6.4036792588430880e-01  7.0025852865023963e-01  7.0905163936365390e-01  5.3453421547593927e-01  1.8175971005910477e-01  1.0307284184379950e+00  1.0260220493398808e+00  1.1049280755875104e+00  9.2886096491786097e-01  3.9832853911536281e-01  9.5528154092973383e-01  7.5810073412024848e-01  8.5652754036813505e-01  1.2230295070489920e+00  1.7907197185320756e-01  1.7961622740342276e-01  4.5336054890201810e-01  1.0011972509600473e+00  1.0917540580811207e+00  6.8461294016971352e-01  1.0107969869918974e+00  9.9166898223200683e-01  6.0515160160538051e-01  8.4189559079933196e-01  9.5640008025529544e-01  7.1474350400157116e-01  8.1927312171872935e-01  6.9557114394871189e-01  8.5688206992329174e-01  3.7958834795485802e-01  4.5946795231413218e-01  9.0099034377424447e-01  6.6091623899861507e-01  1.1728868219782040e+00  1.8349907827217837e-01  8.6910781056188613e-01  8.7462427532305809e-01  4.9347719006370672e-01  4.2389635032094852e-01  3.9474767545363393e-01  3.8164518042880580e-01  1.1780063338981137e+00  3.7026461257726156e-01  8.5465344544206956e-01  9.8707789104392940e-01  5.8936052306626219e-01  6.3159930887141780e-01  1.1057025536608482e+00  3.8735001878663233e-01  3.8062281171739498e-01  6.6655392026113847e-01  6.4359638248526618e-01  8.8665679357100202e-01  3.8821419221344305e-01  1.2180183484455234e+00  7.5805967499613469e-01  1.0139634568505509e+00  1.0971471065674856e+00  1.6618619702990903e-01  3.8363255050194095e-01  8.4201784090868736e-01  1.6911140860903121e-01  8.2808097726819485e-01  2.6126049141647573e-01  1.6957416680851967e-01  1.6494273452950711e-01  1.6914133852271898e-01  7.6498541568756739e-01  1.2387814171117104e+00  8.3809849333235642e-01  1.6997475149933125e-01  1.6242208731112331e-01  9.5644132936032800e-01  6.0961663137340649e-01  1.1661761737174461e+00  6.7856674662765371e-01  6.3229377444591162e-01  1.6613147778419948e-01  6.7951842747712743e-01  9.4228613666688654e-01  1.0871158276704167e+00  1.6594050786170980e-01  4.0707026873695085e-01  6.2983509418601791e-01  5.6219959261825747e-01  4.3631965395926514e-01  3.5982135135563098e-01  1.7292188426477917e-01  3.7396899098031239e-01  4.1806007835912956e-01  4.4057809492705002e-01  3.6721658159845949e-01  9.8341875798129497e-01  3.6834744018074045e-01  1.1371765263021765e+00  7.1483651827901662e-01  7.6449622105672521e-01  5.5985833907267035e-01  5.1866932651659470e-01  2.1411163055308599e-01  9.9284635578698466e-01  6.9398567274748069e-01  4.2862052352568386e-01  3.9743648621810040e-01  5.9953089817975713e-01  1.2215761395048435e+00  7.0725248129351459e-01  4.3579743128748516e-01  5.9240183010951908e-01  1.0491334933705294e+00  1.6521993923210312e-01  1.5740447917098785e-01  7.7351058072468615e-01  8.4527532301121389e-01  7.9094661251848219e-01  1.6115984120839702e-01  1.0766151194481488e+00  1.1816398893497673e+00  7.7872653180001683e-01  5.5605001641595786e-01  3.7713810677871851e-01  1.1295033031749815e+00  1.1873236769003876e+00  5.3493064127148815e-01  9.2080812881703611e-01  3.3486726574039838e-01  1.6004569825975765e-01  8.2414144400584521e-01  1.5236294997248423e-01  1.0998677746314760e+00  6.7643407671498412e-01  9.7878796697574266e-01  1.0485608226698599e+00  9.6972518401553431e-01  1.0846399183369637e+00  7.7977224348908525e-01  1.5483579106631529e-01  1.5675813262119420e-01  1.5971594986953228e-01  4.5413928633994632e-01  3.8288779239674720e-01  7.2131267159490620e-01  5.0320615908629907e-01  3.5410525440108326e-01  1.5666854315031484e-01  1.1949722634857105e+00  5.0731965113951216e-01  5.6652143362836827e-01  1.1594871558460189e+00  4.5828504377698975e-01  9.1116867531326340e-01  1.0775946356794877e+00  1.4853705977295717e-01  9.9590086990144411e-01  4.6158083130591093e-01  1.1677447218500840e+00  1.2145865860955725e+00  3.3583182355875679e-01  3.5596041233069314e-01  1.6245688134523084e-01  9.5535887123955898e-01  1.4511980580863348e-01  8.2248156294431973e-01  1.0682295952838925e+00  9.7906353738752605e-01  8.8676329563113576e-01  6.3612247100390429e-01  3.2829372234981363e-01  5.8490077197367973e-01  1.5184881130013342e-01  6.3190580577628974e-01  7.3942017295332674e-01  8.6056789690677671e-01  8.7779285396782403e-01  7.8607788864178019e-01  5.1395564716644859e-01  5.9137261442604783e-01  6.5246388670017907e-01  3.2603068512345384e-01  1.1000274335808651e+00  1.4325009910140818e-01  1.1446263232515623e+00  8.8670594427133065e-01  7.2798755708077234e-01  7.6993918144018936e-01  8.2095192101312242e-01  8.7914865307344470e-01  6.4575819195261208e-01  1.0842812720995307e+00  1.1657486790417668e+00  5.3480340071539756e-01  1.4667004589724034e-01  9.7605306300799011e-01  3.3738709105397341e-01  8.9186909634176559e-01  1.0999238513351872e+00  5.3814857205317890e-01  1.1364098058615717e+00  1.1954997100026064e+00  6.5728013651069894e-01  1.0352493908861771e+00  6.0959254445446831e-01  6.5207483463099802e-01  5.2034320366336795e-01  7.2080101882706094e-01  6.4200307724329808e-01  9.3747581586992412e-01  1.4932076420988855e-01  9.9401262543963431e-01  3.6610889289555920e-01  6.0657819967421311e-01  8.5080246760135769e-01  1.4928232405430431e-01  3.4588140987333926e-01  1.1924748609360609e+00  4.3207620952907