<?xml version="1.0"?>
<VTKFile type="UnstructuredGrid"  version="0.1"  >
<UnstructuredGrid>
<Piece  NumberOfPoints="18071" NumberOfCells="35544">
<Points>
<DataArray  type="Float64"  NumberOfComponents="3"  format="ascii">0.9486832980505138 0 0  0.9484724340806782 0.02000104469955538 0  0.9478399359086995 0.03999319812908447 0  0.9467860847054931 0.0599675729710886 0  0.9453113489503684 0.07991528981136745 0  0.9434163842227721 0.09982748108627622 0  0.9411020329108563 0.119695295024715 0  0.938369323837003 0.1395098995830973 0  0.9352194718004709 0.1592624863715497 0  0.931653877037369 0.1789442745695953 0  0.9276741245981944 0.1985465148295827 0  0.9232819836432135 0.2180604931661231 0  0.9184794066559997 0.2374775348298079 0  0.9132685285754754 0.2567890081634844 0  0.9076516658468453 0.2759863284393749 0  0.9016313153918442 0.2950609616753339 0  0.8952101534987531 0.3140044284285474 0  0.8883910346326832 0.3328083075649862 0  0.8811769901666499 0.3514642400029395 0  0.873571227034005 0.3699639324289635 0  0.8655771263028276 0.3882991609845931 0  0.8571982416729006 0.4064617749221782 0  0.8484382978959503 0.4244437002282196 0  0.8393011891198424 0.4422369432125932 0  0.829790977157478 0.459833594062067 0  0.8199118896811526 0.477225830356532 0  0.8096683183431869 0.4944059205463824 0  0.7990648168236594 0.5113662273895018 0  0.7881060988061126 0.5280992113463244 0  0.7767970358821309 0.5445974339314641 0  0.7651426553857218 0.5608535610204205 0  0.753148138158463 0.5768603661098937 0  0.7408188162464108 0.5926107335302548 0  0.7281601705297891 0.6080976616087488 0  0.7151778282865192 0.6233142657820195 0  0.7018775606906669 0.6382537816565753 0  0.6882652802469232 0.652909568015835 0  0.6743470381622587 0.6672751097724156 0  0.6601290216559174 0.6813440208643511 0  0.6456175512089487 0.6951100470939552 0  0.6308190777544996 0.7085670689080622 0  0.6157401798101144 0.7217091041184169 0  0.6003875605533189 0.734530310560997 0  0.584768044841788 0.7470249886930909 0  0.5688885761794213 0.7591875841269735 0  0.5527562136296766 0.7710126900990562 0  0.5363781286775311 0.7824950498734097 0  0.5197616020414676 0.7936295590785962 0  0.5029140204369025 0.8044112679767674 0  0.4858428732924924 0.8148353836640227 0  0.4685557494207815 0.8248972722010478 0  0.4510603336446699 0.8345924606730875 0  0.4333644033811983 0.8439166391783361 0  0.4154758251841748 0.8528656627438631 0  0.3974025512471733 0.8614355531682203 0  0.379152615868464 0.8696225007899122 0  0.3607341318794444 0.8774228661809444 0  0.342155287038158 0.8848331817646961 0  0.3234243403895067 0.8918501533573969 0  0.3045496185937731 0.898470661632525 0  0.2855395122250832 0.904691763507473 0  0.2664024720414594 0.9105106934518669 0  0.2471470052281184 0.915924864716955 0  0.2277816716156831 0.9209318704855235 0  0.2083150798749952 0.925529484941822 0  0.1887558836902123 0.9297156642610294 0  0.1691127779118977 0.9334885475178156 0  0.1493944946918097 0.9368464575135985 0  0.1296097996011066 0.9397879015221259 0  0.1097674877336993 0.9423115719530522 0  0.08987637979647611 0.9444163469332154 0  0.06994531818814397 0.9461012908053551 0  0.04998316306842656 0.9473656545440494 0  0.02999878841936526 0.9482088760886865 0  0.01000107810047723 0.9486305805933245 0  -0.01000107810047732 0.9486305805933245 0  -0.02999878841936514 0.9482088760886865 0  -0.04998316306842644 0.9473656545440494 0  -0.06994531818814406 0.9461012908053551 0  -0.08987637979647599 0.9444163469332155 0  -0.1097674877336992 0.9423115719530522 0  -0.1296097996011065 0.9397879015221259 0  -0.1493944946918096 0.9368464575135985 0  -0.1691127779118979 0.9334885475178156 0  -0.1887558836902122 0.9297156642610294 0  -0.2083150798749951 0.925529484941822 0  -0.227781671615683 0.9209318704855235 0  -0.247147005228118 0.9159248647169551 0  -0.2664024720414591 0.9105106934518669 0  -0.2855395122250831 0.904691763507473 0  -0.3045496185937729 0.8984706616325251 0  -0.3234243403895066 0.8918501533573969 0  -0.3421552870381577 0.8848331817646962 0  -0.3607341318794441 0.8774228661809446 0  -0.3791526158684641 0.8696225007899122 0  -0.3974025512471734 0.8614355531682203 0  -0.4154758251841746 0.8528656627438632 0  -0.4333644033811984 0.8439166391783361 0  -0.4510603336446696 0.8345924606730876 0  -0.4685557494207815 0.8248972722010479 0  -0.4858428732924923 0.8148353836640227 0  -0.5029140204369026 0.8044112679767673 0  -0.5197616020414676 0.7936295590785962 0  -0.536378128677531 0.7824950498734098 0  -0.5527562136296768 0.7710126900990562 0  -0.5688885761794211 0.7591875841269737 0  -0.5847680448417879 0.747024988693091 0  -0.6003875605533187 0.7345303105609973 0  -0.6157401798101142 0.721709104118417 0  -0.6308190777544995 0.7085670689080623 0  -0.6456175512089487 0.6951100470939551 0  -0.6601290216559171 0.6813440208643513 0  -0.6743470381622587 0.6672751097724156 0  -0.688265280246923 0.6529095680158352 0  -0.7018775606906668 0.6382537816565753 0  -0.7151778282865192 0.6233142657820195 0  -0.7281601705297891 0.6080976616087488 0  -0.7408188162464107 0.592610733530255 0  -0.753148138158463 0.5768603661098938 0  -0.7651426553857216 0.5608535610204208 0  -0.7767970358821308 0.5445974339314642 0  -0.7881060988061125 0.5280992113463245 0  -0.7990648168236594 0.5113662273895018 0  -0.8096683183431868 0.4944059205463825 0  -0.8199118896811526 0.477225830356532 0  -0.8297909771574777 0.4598335940620675 0  -0.8393011891198424 0.4422369432125932 0  -0.8484382978959502 0.4244437002282198 0  -0.8571982416729006 0.4064617749221782 0  -0.8655771263028273 0.3882991609845933 0  -0.873571227034005 0.3699639324289636 0  -0.8811769901666499 0.3514642400029395 0  -0.8883910346326833 0.332808307564986 0  -0.8952101534987531 0.3140044284285475 0  -0.9016313153918442 0.295060961675334 0  -0.9076516658468452 0.2759863284393752 0  -0.9132685285754755 0.2567890081634842 0  -0.9184794066559997 0.237477534829808 0  -0.9232819836432135 0.218060493166123 0  -0.9276741245981943 0.1985465148295829 0  -0.931653877037369 0.1789442745695954 0  -0.9352194718004709 0.15926248637155 0  -0.938369323837003 0.1395098995830971 0  -0.9411020329108563 0.1196952950247151 0  -0.9434163842227721 0.09982748108627618 0  -0.9453113489503684 0.07991528981136768 0  -0.9467860847054931 0.05996757297108869 0  -0.9478399359086995 0.03999319812908442 0  -0.9484724340806782 0.02000104469955522 0  -0.9486832980505138 1.161801964362116e-16 0  -0.9484724340806782 -0.02000104469955541 0  -0.9478399359086995 -0.0399931981290842 0  -0.9467860847054931 -0.05996757297108847 0  -0.9453113489503684 -0.07991528981136745 0  -0.9434163842227721 -0.09982748108627594 0  -0.9411020329108563 -0.1196952950247148 0  -0.938369323837003 -0.1395098995830973 0  -0.935219471800471 -0.1592624863715494 0  -0.9316538770373691 -0.1789442745695952 0  -0.9276741245981944 -0.1985465148295827 0  -0.9232819836432136 -0.2180604931661228 0  -0.9184794066559998 -0.2374775348298077 0  -0.9132685285754755 -0.256789008163484 0  -0.9076516658468454 -0.2759863284393745 0  -0.9016313153918442 -0.2950609616753337 0  -0.8952101534987533 -0.3140044284285469 0  -0.8883910346326832 -0.3328083075649862 0  -0.8811769901666497 -0.3514642400029397 0  -0.8735712270340051 -0.3699639324289634 0  -0.8655771263028275 -0.3882991609845931 0  -0.8571982416729007 -0.406461774922178 0  -0.8484382978959503 -0.4244437002282196 0  -0.8393011891198425 -0.4422369432125929 0  -0.8297909771574781 -0.4598335940620669 0  -0.8199118896811529 -0.4772258303565314 0  -0.8096683183431871 -0.494405920546382 0  -0.7990648168236597 -0.5113662273895012 0  -0.7881060988061124 -0.5280992113463246 0  -0.7767970358821309 -0.544597433931464 0  -0.7651426553857217 -0.5608535610204206 0  -0.7531481381584632 -0.5768603661098936 0  -0.7408188162464108 -0.5926107335302547 0  -0.7281601705297893 -0.6080976616087486 0  -0.7151778282865193 -0.6233142657820193 0  -0.7018775606906672 -0.638253781656575 0  -0.6882652802469235 -0.6529095680158347 0  -0.674347038162259 -0.6672751097724151 0  -0.660129021655917 -0.6813440208643514 0  -0.6456175512089486 -0.6951100470939552 0  -0.6308190777544994 -0.7085670689080624 0  -0.6157401798101141 -0.7217091041184172 0  -0.6003875605533191 -0.7345303105609969 0  -0.5847680448417881 -0.7470249886930909 0  -0.5688885761794213 -0.7591875841269736 0  -0.5527562136296765 -0.7710126900990563 0  -0.5363781286775317 -0.7824950498734093 0  -0.519761602041468 -0.7936295590785959 0  -0.5029140204369028 -0.8044112679767672 0  -0.4858428732924925 -0.8148353836640226 0  -0.4685557494207817 -0.8248972722010478 0  -0.4510603336446699 -0.8345924606730875 0  -0.4333644033811982 -0.8439166391783361 0  -0.4154758251841745 -0.8528656627438633 0  -0.3974025512471736 -0.8614355531682203 0  -0.3791526158684643 -0.8696225007899121 0  -0.3607341318794445 -0.8774228661809444 0  -0.342155287038158 -0.8848331817646962 0  -0.3234243403895075 -0.8918501533573966 0  -0.3045496185937727 -0.8984706616325251 0  -0.2855395122250827 -0.9046917635074732 0  -0.2664024720414597 -0.9105106934518667 0  -0.2471470052281185 -0.915924864716955 0  -0.2277816716156832 -0.9209318704855235 0  -0.2083150798749951 -0.925529484941822 0  -0.1887558836902128 -0.9297156642610293 0  -0.1691127779118983 -0.9334885475178155 0  -0.14939449469181 -0.9368464575135985 0  -0.1296097996011069 -0.9397879015221258 0  -0.1097674877336994 -0.942311571953052 0  -0.08987637979647602 -0.9444163469332154 0  -0.06994531818814387 -0.9461012908053551 0  -0.04998316306842625 -0.9473656545440494 0  -0.02999878841936558 -0.9482088760886865 0  -0.01000107810047755 -0.9486305805933245 0  0.0100010781004772 -0.9486305805933245 0  0.02999878841936524 -0.9482088760886865 0  0.04998316306842591 -0.9473656545440494 0  0.06994531818814352 -0.9461012908053552 0  0.08987637979647567 -0.9444163469332155 0  0.1097674877336991 -0.9423115719530522 0  0.1296097996011066 -0.9397879015221259 0  0.1493944946918097 -0.9368464575135985 0  0.1691127779118979 -0.9334885475178156 0  0.1887558836902125 -0.929715
[...]
<PointData  Scalars="f_29-2"> 
<DataArray  type="Float64"  Name="f_29-2"  format="ascii">0.0000000000000000e+00  0.0000000000000000e+00  0.0000000000000000e+00  0.0000000000000000e+00  0.0000000000000000e+00  0.0000000000000000e+00  0.0000000000000000e+00  0.0000000000000000e+00  0.0000000000000000e+00  0.0000000000000000e+00  0.0000000000000000e+00  0.0000000000000000e+00  0.0000000000000000e+00  0.0000000000000000e+00  0.0000000000000000e+00  0.0000000000000000e+00  0.0000000000000000e+00  0.0000000000000000e+00  0.0000000000000000e+00  0.0000000000000000e+00  0.0000000000000000e+00  0.0000000000000000e+00  0.0000000000000000e+00  0.0000000000000000e+00  0.0000000000000000e+00  0.0000000000000000e+00  0.0000000000000000e+00  0.0000000000000000e+00  0.0000000000000000e+00  0.0000000000000000e+00  0.0000000000000000e+00  0.0000000000000000e+00  0.0000000000000000e+00  0.0000000000000000e+00  0.0000000000000000e+00  0.0000000000000000e+00  0.0000000000000000e+00  0.0000000000000000e+00  0.0000000000000000e+00  0.0000000000000000e+00  0.0000000000000000e+00  0.0000000000000000e+00  0.0000000000000000e+00  0.0000000000000000e+00  0.0000000000000000e+00  0.0000000000000000e+00  0.0000000000000000e+00  0.0000000000000000e+00  0.0000000000000000e+00  0.0000000000000000e+00  0.0000000000000000e+00  0.0000000000000000e+00  0.0000000000000000e+00  0.0000000000000000e+00  0.0000000000000000e+00  0.0000000000000000e+00  0.0000000000000000e+00  0.0000000000000000e+00  0.0000000000000000e+00  0.0000000000000000e+00  0.0000000000000000e+00  0.0000000000000000e+00  0.0000000000000000e+00  0.0000000000000000e+00  0.0000000000000000e+00  0.0000000000000000e+00  0.0000000000000000e+00  0.0000000000000000e+00  0.0000000000000000e+00  0.0000000000000000e+00  0.0000000000000000e+00  0.0000000000000000e+00  0.0000000000000000e+00  0.0000000000000000e+00  0.0000000000000000e+00  0.0000000000000000e+00  0.0000000000000000e+00  0.0000000000000000e+00  0.0000000000000000e+00  0.0000000000000000e+00  0.0000000000000000e+00  0.0000000000000000e+00  0.0000000000000000e+00  0.0000000000000000e+00  0.0000000000000000e+00  0.0000000000000000e+00  0.0000000000000000e+00  0.0000000000000000e+00  0.0000000000000000e+00  0.0000000000000000e+00  0.0000000000000000e+00  0.0000000000000000e+00  0.0000000000000000e+00  0.0000000000000000e+00  0.0000000000000000e+00  0.0000000000000000e+00  0.0000000000000000e+00  0.0000000000000000e+00  0.0000000000000000e+00  0.0000000000000000e+00  0.0000000000000000e+00  0.0000000000000000e+00  0.0000000000000000e+00  0.0000000000000000e+00  0.0000000000000000e+00  0.0000000000000000e+00  0.0000000000000000e+00  0.0000000000000000e+00  0.0000000000000000e+00  0.0000000000000000e+00  0.0000000000000000e+00  0.0000000000000000e+00  0.0000000000000000e+00  0.0000000000000000e+00  0.0000000000000000e+00  0.0000000000000000e+00  0.0000000000000000e+00  0.0000000000000000e+00  0.0000000000000000e+00  0.0000000000000000e+00  0.0000000000000000e+00  0.0000000000000000e+00  0.0000000000000000e+00  0.0000000000000000e+00  0.0000000000000000e+00  0.0000000000000000e+00  0.0000000000000000e+00  0.0000000000000000e+00  0.0000000000000000e+00  0.0000000000000000e+00  0.0000000000000000e+00  0.0000000000000000e+00  0.0000000000000000e+00  0.0000000000000000e+00  0.0000000000000000e+00  0.0000000000000000e+00  0.0000000000000000e+00  0.0000000000000000e+00  0.0000000000000000e+00  0.0000000000000000e+00  0.0000000000000000e+00  0.0000000000000000e+00  0.0000000000000000e+00  0.0000000000000000e+00  0.0000000000000000e+00  0.0000000000000000e+00  0.0000000000000000e+00  0.0000000000000000e+00  0.0000000000000000e+00  0.0000000000000000e+00  0.0000000000000000e+00  0.0000000000000000e+00  0.0000000000000000e+00  0.0000000000000000e+00  0.0000000000000000e+00  0.0000000000000000e+00  0.0000000000000000e+00  0.0000000000000000e+00  0.0000000000000000e+00  0.0000000000000000e+00  0.0000000000000000e+00  0.0000000000000000e+00  0.0000000000000000e+00  0.0000000000000000e+00  0.0000000000000000e+00  0.0000000000000000e+00  0.0000000000000000e+00  0.0000000000000000e+00  0.0000000000000000e+00  0.0000000000000000e+00  0.0000000000000000e+00  0.0000000000000000e+00  0.0000000000000000e+00  0.0000000000000000e+00  0.0000000000000000e+00  0.0000000000000000e+00  0.0000000000000000e+00  0.0000000000000000e+00  0.0000000000000000e+00  0.0000000000000000e+00  0.0000000000000000e+00  0.0000000000000000e+00  0.0000000000000000e+00  0.0000000000000000e+00  0.0000000000000000e+00  0.0000000000000000e+00  0.0000000000000000e+00  0.0000000000000000e+00  0.0000000000000000e+00  0.0000000000000000e+00  0.0000000000000000e+00  0.0000000000000000e+00  0.0000000000000000e+00  0.0000000000000000e+00  0.0000000000000000e+00  0.0000000000000000e+00  0.0000000000000000e+00  0.0000000000000000e+00  0.0000000000000000e+00  0.0000000000000000e+00  0.0000000000000000e+00  0.0000000000000000e+00  0.0000000000000000e+00  0.0000000000000000e+00  0.0000000000000000e+00  0.0000000000000000e+00  0.0000000000000000e+00  0.0000000000000000e+00  0.0000000000000000e+00  0.0000000000000000e+00  0.0000000000000000e+00  0.0000000000000000e+00  0.0000000000000000e+00  0.0000000000000000e+00  0.0000000000000000e+00  0.0000000000000000e+00  0.0000000000000000e+00  0.0000000000000000e+00  0.0000000000000000e+00  0.0000000000000000e+00  0.0000000000000000e+00  0.0000000000000000e+00  0.0000000000000000e+00  0.0000000000000000e+00  0.0000000000000000e+00  0.0000000000000000e+00  0.0000000000000000e+00  0.0000000000000000e+00  0.0000000000000000e+00  0.0000000000000000e+00  0.0000000000000000e+00  0.0000000000000000e+00  0.0000000000000000e+00  0.0000000000000000e+00  0.0000000000000000e+00  0.0000000000000000e+00  0.0000000000000000e+00  0.0000000000000000e+00  0.0000000000000000e+00  0.0000000000000000e+00  0.0000000000000000e+00  0.0000000000000000e+00  0.0000000000000000e+00  0.0000000000000000e+00  0.0000000000000000e+00  0.0000000000000000e+00  0.0000000000000000e+00  0.0000000000000000e+00  0.0000000000000000e+00  0.0000000000000000e+00  0.0000000000000000e+00  0.0000000000000000e+00  0.0000000000000000e+00  0.0000000000000000e+00  0.0000000000000000e+00  0.0000000000000000e+00  0.0000000000000000e+00  0.0000000000000000e+00  0.0000000000000000e+00  0.0000000000000000e+00  0.0000000000000000e+00  0.0000000000000000e+00  0.0000000000000000e+00  0.0000000000000000e+00  0.0000000000000000e+00  0.0000000000000000e+00  0.0000000000000000e+00  0.0000000000000000e+00  0.0000000000000000e+00  0.0000000000000000e+00  0.0000000000000000e+00  0.0000000000000000e+00  0.0000000000000000e+00  0.0000000000000000e+00  0.0000000000000000e+00  0.0000000000000000e+00  0.0000000000000000e+00  0.0000000000000000e+00  0.0000000000000000e+00  0.0000000000000000e+00  0.0000000000000000e+00  0.0000000000000000e+00  0.0000000000000000e+00  0.0000000000000000e+00  0.0000000000000000e+00  0.0000000000000000e+00  0.0000000000000000e+00  0.0000000000000000e+00  0.0000000000000000e+00  0.0000000000000000e+00  0.0000000000000000e+00  0.0000000000000000e+00  0.0000000000000000e+00  0.0000000000000000e+00  0.0000000000000000e+00  0.0000000000000000e+00  0.0000000000000000e+00  0.0000000000000000e+00  1.2364555366522791e+00  9.2843360834713717e-01  9.2836405658617516e-01  9.2838265584324242e-01  9.2841015019862827e-01  9.0767286749488985e-01  8.7428096814204792e-01  7.4445191488526585e-01  7.4437944353757279e-01  6.8165370827575866e-01  6.7855096321332753e-01  6.5819538590129323e-01  6.4974806262196638e-01  1.1199652855554680e+00  1.1199589828830243e+00  1.1323943426261902e+00  5.7796804199753615e-01  5.7793047157050748e-01  5.8209031770070840e-01  5.7794220536549601e-01  1.1336747131896727e+00  1.1126953498479419e+00  5.5460853707461755e-01  5.5560267404488162e-01  1.0767560506979235e+00  5.4297208480613268e-01  5.2561423778631355e-01  5.6751000194495860e-01  5.8054905092663012e-01  5.2328867637545873e-01  9.3521757326411270e-01  6.5736016311009637e-01  4.4031566826492458e-01  4.4032100578775996e-01  4.4412723289141892e-01  4.4032487074208204e-01  9.4638779115694294e-01  8.5353819162054112e-01  8.5345537622346757e-01  9.5045210711866379e-01  8.5940582637904428e-01  1.1877732174338069e+00  1.1923521580767817e+00  9.2889169750891865e-01  4.0847895496816539e-01  3.9936508807367793e-01  4.0704343883592731e-01  4.0032706043201338e-01  6.7361887224058681e-01  3.9711108524386091e-01  3.9745531420197877e-01  3.7807136838103816e-01  3.8664478364660981e-01  8.7246625535184730e-01  7.9893897706081152e-01  9.0309022000646999e-01  3.7646468448673376e-01  3.7610012913015778e-01  1.1076345499600502e+00  9.6460381424565667e-01  1.2039443444153062e+00  1.1983262325800565e+00  1.1830231701167526e+00  7.7035302279936524e-01  1.0874786679693200e+00  3.8677880993895464e-01  1.0350595163340328e+00  1.0801140056185190e+00  3.7291598872908960e-01  3.5504160244758615e-01  7.4540224300654101e-01  8.3552067208854941e-01  3.4774952817510341e-01  1.0799859368064677e+00  1.2070974493589115e+00  1.0307429515759714e+00  1.0200143027861239e+00  1.0517030697477152e+00  1.0253502313445970e+00  7.7889466661151563e-01  3.3204789300922072e-01  3.2900687745354829e-01  3.2893551790859021e-01  6.8567419665839335e-01  3.2965050844769345e-01  3.5129241107007159e-01  8.0621455444509027e-01  7.0953054771261059e-01  3.1889020958892272e-01  1.0144290628300401e+00  7.6941942554959963e-01  8.1156881386215829e-01  6.7092741497619846e-01  3.1033230854953997e-01  9.5459954564986926e-01  6.7194322730395040e-01  6.7190590513785120e-01  3.0826130899535220e-01  1.0182279831751093e+00  3.0916283182130033e-01  7.2573116224636147e-01  3.0949740604314063e-01  6.4095429582930730e-01  7.7337577919625444e-01  7.4636598385870745e-01  1.1392767357781888e+00  1.0445351068502720e+00  1.0244934293948607e+00  2.9633698771395289e-01  6.1442884872009762e-01  2.8380572513220692e-01  1.0077022176362374e+00  7.1501576414301671e-01  7.9981791176347383e-01  3.1034006461481467e-01  6.1998680363612779e-01  1.1940094289589405e+00  8.0475642328876684e-01  5.4433321694360781e-01  6.2535837006042116e-01  3.2692981131679322e-01  3.0513491175205193e-01  5.4223351663437458e-01  8.9603423919809988e-01  1.1329960683036688e+00  7.4227162802693780e-01  5.9098495668504691e-01  1.1263108514856082e+00  2.7956344591141136e-01  5.9457743746585801e-01  3.7253504628001433e-01  2.9121122997465748e-01  5.6256498825901602e-01  9.0605960516674477e-01  2.8158743135052072e-01  2.8456711054996697e-01  2.7095189163128680e-01  2.6994535466061786e-01  7.0158464146875699e-01  1.1919942315293741e+00  4.5171461610913910e-01  9.8655102208311740e-01  5.8256389900550443e-01  1.1167905959745150e+00  4.9562781500531544e-01  1.2227078964926885e+00  5.5265888910999061e-01  1.0537568825262726e+00  2.4499557427595534e-01  3.7218162260629034e-01  2.6988773067713429e-01  8.8213155371914520e-01  8.0237161102023591e-01  1.0467292497554104e+00  8.1497737080429600e-01  2.4404998212260057e-01  2.4568258460928211e-01  2.3906324564435336e-01  2.3897610795508542e-01  4.9658040987554364e-01  7.7162405076047758e-01  1.1518245963506271e+00  5.1328104264950891e-01  4.7808611047702587e-01  6.8152844590021822e-01  8.1541863239056045e-01  5.7109984666677649e-01  8.5748799801506292e-01  9.7263936970492837e-01  1.2239216677995799e+00  1.1547231791809325e+00  5.2329610213813049e-01  8.0537763455351974e-01  2.5075974234525977e-01  1.1266536616367104e+00  1.0495602216352986e+00  9.3721342421736176e-01  5.2177282251013513e-01  1.0295346433543204e+00  5.4779842350139518e-01  8.5953199105608769e-01  9.4079047287800799e-01  5.1082862329736300e-01  8.3009900175782192e-01  4.8128257467622487e-01  5.4684613671182469e-01  1.1519274062106997e+00  1.2241685909404136e+00  1.1583567218743873e+00  2.2423189554867112e-01  2.3323914502085774e-01  9.0994856389310486e-01  2.2560045278835786e-01  2.4385195453246045e-01  8.9476685672888312e-01  8.0624920739528072e-01  7.2943237383027903e-01  8.0621055981651679e-01  7.1869488465330600e-01  9.3519695949698922e-01  7.2892683494228250e-01  5.5952067035579423e-01  2.2652134988330030e-01  2.1729904080904591e-01  2.1763845842293075e-01  4.9353495644236217e-01  8.3414055835471979e-01  4.9506588305635324e-01  4.7653540771619984e-01  2.1946670447063596e-01  2.1814346161540996e-01  9.6036621379372777e-01  1.0466484427884779e+00  2.1770298142810740e-01  1.0287532043696970e+00  1.0232846884296583e+00  1.1055871527073966e+00  2.0994042497532367e-01  9.2235056351909406e-01  2.1503698631685991e-01  1.2268165653428931e+00  6.5957593735887432e-01  2.3424109675427421e-01  2.2231286346124968e-01  2.1033522998570287e-01  1.0069096591194042e+00  2.0663591264646933e-01  2.7228595742268791e-01  4.1919330630563084e-01  2.2902977830251600e-01  2.0524694432202475e-01  5.5437941701685212e-01  4.4875407796934480e-01  4.6436837553609883e-01  4.4443894226585839e-01  2.1495712742135226e-01  5.9790981873416715e-01  2.2334627111226041e-01  4.1441961825154944e-01  2.0122700644882674e-01  1.1659594777620017e+00  1.1856008869125432e+00  4.5877428349706012e-01  4.8021991786009649e-01  7.8539457661614909e-01  1.1863700582360575e+00  5.7005565245572676e-01  9.7138658354509644e-01  9.2760253098809575e-01  1.1629223928337198e+00  5.0673442512295652e-01  7.4876109658965706e-01  6.8787812787050773e-01  5.2070897741475486e-01  2.0144559174320109e-01  2.1133793046386146e-01  2.0125835908945117e-01  2.5019813390010931e-01  9.3148874358634426e-01  9.3482496474518584e-01  7.1745883902519381e-01  2.0598020666593853e-01  7.1007722686679808e-01  1.0405602110452019e+00  2.0146984665189110e-01  8.1898243699464912e-01  1.0836017642915758e+00  1.0786822089461903e+00  1.2058370013102817e+00  1.1382413198535102e+00  7.1096954005855673e-01  1.2283496019618434e+00  2.0542703763321532e-01  1.0926806247620529e+00  8.6247392388647892e-01  9.4302113023337764e-01  7.9083049899461322e-01  7.4396650071179027e-01  7.6185262922434416e-01  2.0692307758633666e-01  1.1217870489641524e+00  5.3504193834974012e-01  9.5902460814455770e-01  6.5505524993255637e-01  8.1801254587356254e-01  1.0186280978188227e+00  1.0206508912633012e+00  1.0927814926852628e+00  2.4622818027182367e-01  1.0778351462093521e+00  5.9651999466217254e-01  1.1447690440061986e+00  7.0793809722939038e-01  6.4641106139670612e-01  1.2242804249053258e+00  1.0061901263730431e+00  4.7709611053248069e-01  6.8405343752979320e-01  5.4427682681261835e-01  1.1687843404003013e+00  4.2433305431884821e-01  8.7735612659992557e-01  5.8373538764172961e-01  1.8785107347647809e-01  1.8402536631271921e-01  1.1972661295589526e+00  6.4454136273396023e-01  1.9536999098034930e-01  4.3342488735800511e-01  4.6941618656534695e-01  1.9416242106161430e-01  4.3133687459845760e-01  1.8830873123054614e-01  1.9159449677790008e-01  1.0867809218305193e+00  1.8263693600732581e-01  6.3695375505784513e-01  6.9643930009968824e-01  7.0517190359010395e-01  5.3179692730478922e-01  1.8094771810229338e-01  1.0243728713396898e+00  1.0197063903301884e+00  1.0979275570884122e+00  9.2334437253634027e-01  3.9639306638067212e-01  9.4955229200976765e-01  7.5387572985977702e-01  8.5157486921056724e-01  1.2149417711360881e+00  1.7827261125971744e-01  1.7881515824355051e-01  4.5110988635105387e-01  9.9509024077879493e-01  1.0848703823179084e+00  6.8090100930353359e-01  1.0046097731718866e+00  9.8564128924867933e-01  6.0196768750031449e-01  8.3705400912898975e-01  9.5066183230408796e-01  7.1082419872910907e-01  8.1460152583135914e-01  6.9178450785631762e-01  8.5192675156147657e-01  3.7775684817464017e-01  4.5718166952012457e-01  8.9569416335687813e-01  6.5736477100843993e-01  1.1652701201207594e+00  1.8267886458222260e-01  8.6405888314148271e-01  8.6953302348804096e-01  4.9098960486827781e-01  4.2181621847933864e-01  3.9283187031766581e-01  3.7980230535986403e-01  1.1703421880811495e+00  3.6848481220290025e-01  8.4971519264651951e-01  9.8108819724858132e-01  5.8627877299154274e-01  6.2824254372037447e-01  1.0986953098638121e+00  3.8547552698011511e-01  3.7878615867520454e-01  6.6296495579769876e-01  6.4016102994078661e-01  8.8147233664022084e-01  3.8633505078067504e-01  1.2099783308216767e+00  7.5383460251519896e-01  1.0077496840545743e+00  1.0902158013108858e+00  1.6544863840203011e-01  3.8177921853723507e-01  8.3717526581169699e-01  1.6836020759485815e-01  8.2334313827767380e-01  2.6005708229745089e-01  1.6882030539888543e-01  1.6421112154761411e-01  1.6838983421771786e-01  7.6071068521593044e-01  1.2305428414042334e+00  8.3328562097653469e-01  1.6921935058355791e-01  1.6170249559140137e-01  9.5070262289167040e-01  6.0640428128170776e-01  1.1586214539942348e+00  6.7489627267317953e-01  6.2893323850923244e-01  1.6539414139113198e-01  6.7584142366628830e-01  9.3666187396204015e-01  1.0802728777607429e+00  1.6520457002628511e-01  4.0508561567927032e-01  6.2649041352933521e-01  5.5928998984616218e-01  4.3416791698694829e-01  3.5809875203040764e-01  1.7215251018605271e-01  3.7216876314893199e-01  4.1601314463975847e-01  4.3840187378485185e-01  3.6545348932485022e-01  9.7745945003061507e-01  3.6657821066475788e-01  1.1298868190279081e+00  7.1091611620146444e-01  7.6022485532216444e-01  5.5696317400537387e-01  5.1602912869346129e-01  2.1314350494311729e-01  9.8680883342026449e-01  6.9020964288556497e-01  4.2651312722179652e-01  3.9550600297360627e-01  5.9638359786406248e-01  1.2135022679230041e+00  7.0338482920823853e-01  4.3364914664002185e-01  5.8930050313382665e-01  1.0426206032980001e+00  1.6448699339549042e-01  1.5670837716791747e-01  7.6917427424416374e-01  8.4040824890355470e-01  7.8648389060776358e-01  1.6044624938876231e-01  1.0698642865077155e+00  1.1739419647242550e+00  7.7435255276169812e-01  5.5317933062146241e-01  3.7532019709486358e-01  1.1222829201603159e+00  1.1795728073280407e+00  5.3219084600829480e-01  9.1535556127683793e-01  3.3327981244528099e-01  1.5933735089290216e-01  8.1943329774275975e-01  1.5169079196427762e-01  1.0929122604026460e+00  6.7277824164541200e-01  9.7286672443174760e-01  1.0420529225045188e+00  9.6387831114222233e-01  1.0778188461378060e+00  7.7539083066815218e-01  1.5415225925648152e-01  1.5606522364314640e-01  1.5900916935931675e-01  4.5188424447610193e-01  3.8103849519266486e-01  7.1734746460839149e-01  5.0066005910273337e-01  3.5241360221839069e-01  1.5597590373315137e-01  1.1871498229215103e+00  5.0474830167301477e-01  5.6358434265465440e-01  1.1519940138314095e+00  4.5600583467203848e-01  9.0579231979482644e-01  1.0708351184044511e+00  1.4788298695722193e-01  9.8983777658822236e-01  4.5928231238576367e-01  1.1601755232486934e+00  1.2065791501654819e+00  3.3423921637399895e-01  3.5425888142309575e-01  1.6173711035130428e-01  9.4962899893201758e-01  1.4448145562625642e-01  8.1778582365927588e-01  1.0615516537659007e+00  9.7313991524204080e-01  8.8157799785490865e-01  6.3273653838394606e-01  3.2674139550707049e-01  5.8184735881105853e-01  1.5117856714729064e-01  6.2854761458050035e-01  7.3532784536082174e-01  8.5558450371924144e-01  8.7267718716664089e-01  7.8165074587952721e-01  5.1134412240572069e-01  5.8827744623310874e-01  6.4896919434488165e-01  3.2449047774866518e-01  1.0930704879804858e+00  1.4262005937482514e-01  1.1372689106688447e+00  8.8152110904928194e-01  7.2397541999261195e-01  7.6562899090887415e-01  8.1626777539372142e-01  8.7402251708594392e-01  6.4230823853977825e-01  1.0774631937033177e+00  1.1581978633407466e+00  5.3206437063561740e-01  1.4602434513203730e-01  9.7015432965556114e-01  3.3578611739711334e-01  8.8664420214893491e-01  1.0929678920068031e+00  5.3538894512498303e-01  1.1291270173373502e+00  1.1876722739543517e+00  6.5375300319369423e-01  1.0288553033241170e+00  6.0638027535234540e-01  6.4858286108077756e-01  5.1769294387274234e-01  7.1683967860619913e-01  6.3857802656146201e-01  9.3189018469746421e-01  1.4866289860172455e-01  9.8796540567670266e-01  3.6435183480847183e-01  6.0338568079646748e-01  8.4589329575722116e-01  1.4862468373364499e-01  3.4423457244397843e-01  1.1846758338077137e+00  4.2994882925248