<?xml version="1.0"?>
<VTKFile type="UnstructuredGrid"  version="0.1"  >
<UnstructuredGrid>
<Piece  NumberOfPoints="387" NumberOfCells="708">
<Points>
<DataArray  type="Float64"  NumberOfComponents="3"  format="ascii">0 3 0  0 -3 0  6 -3 0  6 3 0  3 -3 0  6 0 0  3 3 0  0 0 0  3 0 0  0 -1.5 0  1.5 -3 0  1.5 3 0  0 1.5 0  6 -1.5 0  4.5 -3 0  6 1.5 0  4.5 3 0  4.25 -1.25 0  1.75 1.25 0  2.25 -1.5 0  4.5 0.75 0  1.541666666666667 -0.2083333333333333 0  3.219827586206896 1.521551724137931 0  1.125 -1.875 0  4.875 1.875 0  0.8702651515151515 0.631628787878788 0  2.25 2.214285714285714 0  3.316176470588236 -1.904411764705882 0  5.214285714285714 -0.75 0  5.03125 -2.03125 0  0.96875 2.03125 0  4.041666666666667 -0.2083333333333333 0  0.8205128205128206 -0.9134615384615387 0  3.942582294752138 2.189194098250713 0  3.061487638533674 -0.968243819266837 0  2.192708333333333 0.4427083333333334 0  4.157850026972511 -2.182329047049442 0  2.331456616463011 -0.5285296485744057 0  3.654761904761905 0.5654761904761902 0  5.25 1.125 0  2.563673341677096 -2.280663329161452 0  5.126674107142857 0.1283482142857142 0  0.75 -3 0  0 -2.25 0  6 2.25 0  5.25 3 0  0.7680051888903191 -0.1384245958639337 0  1.617229471026718 -1.006949429867069 0  4.218940341429579 1.468686552856807 0  3.75 -3 0  2.25 -3 0  0.75 3 0  5.25 -3 0  6 -0.75 0  0 -0.75 0  0 0.75 0  2.25 3 0  6 -2.25 0  0 2.25 0  3.75 3 0  6 0.75 0  1.787573018358365 -2.279142327213878 0  3.195025188237337 2.273430909158844 0  2.528159645294386 1.151699106559287 0  1.041598427383826 1.322848427383826 0  1.520951704545454 0.4634232954545453 0  1.580357142857143 2.325892857142857 0  4.919642857142857 -1.361607142857143 0  4.54981623521892 -0.6483700862895494 0  2.99317863826574 0.6697091957925523 0  3.450169349029507 -0.4574865881858001 0  3.605016126014028 -1.323102984840902 0  2.745144658907412 1.882241931337371 0  0.4898065586600511 1.092777516238393 0  0.5 -1.875 0  1.217028489597945 -2.469323836800685 0  1.659912685567181 -1.604738056701542 0  5.4375 1.6875 0  5.34375 2.34375 0  4.52741779500503 2.384139265001677 0  3.375 -2.514804579549941 0  0.5446428571428571 -2.455357142857143 0  2.766554087216865 -1.745795909102064 0  4.525516559010988 0.1490283123570637 0  3.87554132162248 -0.8280516069565407 0  4.53622906132958 -1.76963146596888 0  0.4243951612903226 1.875 0  0.554851858345021 2.446861709948876 0  5.575604838709677 -1.875 0  5.445148141654979 -2.446861709948876 0  4.875 -2.575604838709677 0  1.440573466105381 1.721823466105381 0  2.193519495405082 1.631799415080963 0  5.472630128027442 -1.330813078900983 0  4.750126894286386 1.343813447143193 0  5.607142857142857 -0.375 0  2.625 2.607142857142857 0  0.3921763197810531 0.375 0  5.60901753622775 0.3750000000000001 0  1.125 2.613454943235572 0  3.701856738980915 1.163867513386733 0  3.736112850688509 1.696746876851408 0  3.519183195491339 0.06065128742606851 0  3.973620778217027 -1.693401606145563 0  0.8125 -1.444978632478633 0  1.256657745408029 -0.6381828923025001 0  0 -1.125 0  5.019997778514942 0.6475044429701156 0  4.125 3 0  1.285569332703024 0.8955310332120207 0  0 -0.375 0  0.4638922275641027 -0.5625 0  2.056635259780241 -0.07226025978024064 0  2.130475508371123 -1.000827820434028 0  2.677484372338113 -1.267299126394495 0  2.848680878891876 -0.4956836878192376 0  4.937901885089369 -0.3340245904575954 0  4.393563081308854 1.919544166973803 0  4.053859126323572 0.2813938488760716 0  1.181051704329518 0.1167440895674965 0  1.971354166666667 2.607142857142857 0  4.875 3 0  2.519350561152006 0.08093582719875507 0  3.139443301924015 -1.442524927271905 0  6 2.625 0  1.849169256239503 1.945480934753207 0  1.867196483071171 0.7892354369530077 0  1.192506522009051 -1.184888428863342 0  3.375 3 0  3.603234392481833 2.536866305538572 0  3.846752908916648 -2.537707634073423 0  2.014339897513945 -1.886932065281681 0  4.038392037966526 0.8363324773944992 0  4.421242701722609 -2.552534687860327 0  3.715389848650903 -2.108856956172843 0  2.985668138820625 1.127780908772207 0  0.4500794934449803 -1.173696061598557 0  3.366760888116476 0.8891914618875614 0  1.869163043700093 -0.6107175804171328 0  2.175114838273305 -2.53928723780967 0  3.014417665538299 -2.241523065744933 0  2.625 -3 0  2.819968145332426 -2.617202329573456 0  5.625 1.3125 0  5.563263538826679 0.814027077653358 0  5.625 3 0  2.550041671270923 0.7074928970804664 0  4.014583091741168 2.59891853892166 0  0.6440729668673318 1.499523832583132 0  5.219449799568244 -1.660557808485412 0  3.474012636702472 -0.9300738420779746 0  0.8125 -2.142857142857143 0  1.875 -3 0  4.945010515846405 2.554471797033147 0  2.611388969012422 -0.8478354915063726 0  3.223746055611014 0.3371683159691745 0  4.843939757110898 -0.9483610977948225 0  4.66556954816842 -2.220888354477256 0  4.125 -3 0  4.448108395110625 -0.2524000502731018 0  5.63671875 2.05078125 0  2.822484133964224 1.491327727709286 0  3.378213092764193 1.903125093887009 0  5.607142857142858 -0.9231200445788541 0  2.12639693023183 1.100450516019641 0  5.625 -3 0  0.375 3 0  0 2.625 0  6 -2.625 0  0.3931307155906299 -0.01856779822591927 0  0.7651723094668359 0.253768144801553 0  0.8549199714190221 -0.5218333744252657 0  1.421989550604507 -2.133299471886336 0  1.582611957351803 -2.615166692128227 0  4.420331038793115 1.133144382396504 0  0.375 -3 0  0 -2.625 0  5.078156723571596 1.54697017071479 0  1.877250715260938 -1.288801575378032 0  2.409169073010687 -1.916147168931784 0  1.146151077069952 -0.268000681695328 0  1.726784828652036 0.1335728643263411 0  2.745628549924675 0.3838821021397905 0  3.011490900297165 2.613625569196862 0  5.62463365164608 -4.137655439684362e-05 0  1.875 3 0  1.125 3 0  6 0.375 0  2.625 3 0  6 -1.125 0  6 -0.375 0  4.875 -3 0  6 -1.875 0  3.375 -3 0  1.125 -3 0  0 -1.875 0  0 0.375 0  0 1.125 0  0 1.875 0  6 1.125 0  6 1.875 0  4.813017731148975 0.9677363687196439 0  2.807371623148303 2.264962208227767 0  0.3692953377255688 0.7436406761680247 0  5.615625 2.615625 0  0.9395725521479794 0.9812935874921043 0  1.390920759130215 1.238984550166515 0  0.9588795022085095 1.672288500195331 0  0.87712392565124 -2.641031728267331 0  0.3665732993114588 -1.532068934251388 0  1.841944504733106 1.591700334213738 0  4.832970185136452 0.3385359233091246 0  4.169083540479082 -0.5746148619765254 0  5.281697083409333 -0.2046640461936881 0  4.072845380968044 1.784516523483641 0  1.293029195762321 -1.543079049035419 0  4.878733886054284 -1.720697370582964 0  3.609167475697567 -1.687579152754035 0  4.836981942878573 2.222259978217028 0  4.204938267037067 -0.9128589669335569 0  5.183079748175263 -1.111742407358677 0  1.22880920402559 2.273525645756405 0  1.469404041858679 2.654509729682302 0  4.566761045622856 -1.414165869120005 0  4.531680518427715 1.606803989975667 0  1.918929241273175 2.27471131819245 0  3.526908551984126 2.207147627530056 0  1.85683899811842 0.4533569963423589 0  1.173935704088662 0.4636872214645547 0  2.116602160898525 -2.207718541460878 0  4.51821874648995 -1.042568353750147 0  2.721551512787618 -0.1859357475290837 0  5.294921875 2.001953125 0  5.288671874999999 2.670703125 0  2.199940744527116 0.7756512213396931 0  4.090519467638897 1.163401080812838 0  2.298177083333333 2.670581371753247 0  2.484362362207526 -2.687319997637033 0  3.300530569898859 1.207053005217563 0  3.936078051808127 -1.362164062673065 0  5.341218841330105 0.5689885832563615 0  4.226314635599414 0.5638853401248238 0  2.524510956818563 1.635483567726497 0  0.3219546452225031 1.389066019009203 0  3.139061555368706 -0.3133905221155423 0  3.145569907612562 -0.6461828528638952 0  3.701427442033566 -0.2272880199383185 0  1.686782510365738 -1.934662341426927 0  2.427696494631844 1.944064773844184 0  3.901817839425732 1.422433381251312 0  2.356489883772755 -0.2025512972825912 0  4.820757576351118 -0.01647699434507374 0  3.064415631228375 1.809719380809516 0  4.643002705009462 2.69782572459795 0  4.31624250429496 2.728112685900672 0  1.520100694408069 -1.314302747998057 0  3.754559308601717 -0.5375020107416889 0  0.25 -2.0625 0  0.8125 -1.826636904761905 0  4.861738621091127 -0.6367294570749906 0  1.545149590740081 2.015832101819233 0  3.857113324620078 0.04127675193819436 0  0.2479605082936806 -0.9375 0  4.21293081604216 2.352874368135467 0  3.123697687162562 -2.708090473740421 0  3.415275466010259 -2.202892416689829 0  3.601103065320932 -2.727566580522146 0  1.558629964945672 -0.5289921609136927 0  3.324859026263307 -1.198136798699183 0  2.424350759683917 -1.092246517929194 0  2.746461744851735 0.9398108087856579 0  0.8882026075771248 2.364936378889839 0  0.8066140242673685 2.679750706449505 0  4.504454978490482 0.4491616076730165 0  4.26881784709759 -0.009649566552704852 0  1.3125 -2.75919801263958 0  1.120577805361368 -2.179971784090952 0  3.734048623985226 0.8602850349907256 0  3.527828882622877 1.432983527791925 0  1.959527908877504 -1.578124930685265 0  0.7602573574724077 1.220872343399509 0  0.6691217533356228 0.8531987603309893 0  1.877213035764122 -2.564340152892596 0  3.32172153715047 2.685939810104955 0  4.285565286275464 -1.569057178671076 0  4.227521511146333 -1.876903861267543 0  5.34375 1.40625 0  5.71875 1.59375 0  1.56245959534423 0.766197796710638 0  0.2458241530773257 2.4375 0  0.2794123857609179 2.138568368155198 0  5.754175846922674 -2.4375 0  5.720587614239082 -2.138568368155198 0  0.6472458227887359 2.124973059628837 0  5.124241021325378 -2.352544055105642 0  5.189172233440652 -2.675873509996353 0  5.364643151640443 -2.12768524739804 0  2.298896485720138 1.348573610321417 0  0.6008689899200503 -2.745193425346304 0  0.307092513690391 -2.651812055231556 0  0.2683745826107009 -2.363146293324415 0  0.5223214285714285 -2.165178571428571 0  0.3925308914031174 2.699891746740618 0  5.607469108596883 -2.699891746740618 0  2.138365140930822 1.917102089073091 0  1.25507379660067 1.953406658386351 0  4.135759889512124 -2.476847355718572 0  0.5330865684534913 -0.8980875812659357 0  2.548249345531056 -1.538893887888457 0  2.67686064875775
[...]
<PointData  Scalars="f_30-2"> 
<DataArray  type="Float64"  Name="f_30-2"  format="ascii">1.0000000000000000e+01  0.0000000000000000e+00  0.0000000000000000e+00  1.0000000000000000e+01  0.0000000000000000e+00  4.9861722166518172e+00  1.0000000000000000e+01  4.9861722166518172e+00  4.9861281711087324e+00  2.4900957889161646e+00  0.0000000000000000e+00  1.0000000000000000e+01  7.4903397206087323e+00  2.4900957889161646e+00  0.0000000000000000e+00  7.4903397206087323e+00  1.0000000000000000e+01  2.9055876022468645e+00  7.0724257157528490e+00  2.4900679399736880e+00  6.2372949449122483e+00  4.6389887656989073e+00  7.5263391174173115e+00  1.8672121084215991e+00  8.1174033204341818e+00  6.0396840316085756e+00  8.6850062220893030e+00  1.8183783849079702e+00  3.7371094451390774e+00  1.6077627434241180e+00  8.3787839750320323e+00  4.6389965404348361e+00  3.4651859301113062e+00  8.6430220146279790e+00  3.3740849424249362e+00  5.7244221034994363e+00  1.3569511978987487e+00  4.1057430315772381e+00  5.9292823188375214e+00  6.8635863359027969e+00  1.1937254832645694e+00  5.2001127785307633e+00  0.0000000000000000e+00  1.2446176107323719e+00  8.7447794896948920e+00  1.0000000000000000e+01  4.7554721097515529e+00  3.3096784462760720e+00  7.4379604843442424e+00  0.0000000000000000e+00  0.0000000000000000e+00  1.0000000000000000e+01  0.0000000000000000e+00  3.7371285435313220e+00  3.7371285435313220e+00  6.2373018735794190e+00  1.0000000000000000e+01  1.2446176107323719e+00  8.7447794896948920e+00  1.0000000000000000e+01  6.2373018735794190e+00  1.1962482462753801e+00  8.7839807180906675e+00  6.9081790765464675e+00  7.1941891789422616e+00  5.7589687902739994e+00  8.8717614871203168e+00  2.7200609109047180e+00  3.9062423532190165e+00  6.1032425351402058e+00  4.2240047099440385e+00  2.7840666714797080e+00  8.1295156658773635e+00  6.8097289365916556e+00  1.8672053919976843e+00  8.8060658815656001e-01  2.3160744273783589e+00  7.8038108745469987e+00  8.9016639082919724e+00  8.9692371658715224e+00  8.0513021794441253e-01  9.0378897348785681e-01  2.0817840357295236e+00  5.2345846924851509e+00  3.6072867233774963e+00  2.0421952178563774e+00  8.1174028143862227e+00  9.0742077747300094e+00  1.8672167303911706e+00  9.1789242641367985e-01  7.0422082617984649e-01  7.8612207984388185e+00  7.7106790084962302e+00  2.7712368050550973e+00  7.2292402479097149e+00  4.3613822454241342e+00  9.3424572540415287e+00  5.6114372953965503e+00  5.6114657715059124e+00  9.3530152397307251e+00  6.9285460881178809e+00  7.8192874765208717e+00  5.0872519588508149e+00  2.1688047959712957e+00  2.5815319127788121e+00  3.9232220452216877e+00  3.1133848382354983e+00  6.0661727294712575e+00  1.0000000000000000e+01  6.4802581469241973e+00  4.3613693215760847e+00  4.0491913964369637e+00  4.8657178176082763e+00  3.3198603320954172e+00  2.8767973056466798e+00  4.1604142994523281e+00  4.4296186453406081e+00  8.1918934371154144e+00  5.4553339007820512e+00  5.1807507384661129e+00  9.3424468195505703e+00  1.0000000000000000e+01  5.1210707227411021e+00  2.5855463143662134e+00  9.3723401129942534e+00  8.2352928910069902e+00  6.3027631602290892e+00  3.0137953189670497e+00  1.0000000000000000e+01  9.2248375902870841e+00  7.6711526444300138e-01  1.8473926089331238e+00  6.3814321297893999e+00  7.4250647576371231e-01  1.4789128403047049e+00  6.8682176182604815e+00  3.0324243411092540e+00  6.4696890309018515e+00  3.9689156867595656e+00  7.6449678722275882e-01  1.2586817817000218e+00  0.0000000000000000e+00  6.3519265441946826e-01  7.1768954882954628e+00  6.3441347417339351e+00  1.0000000000000000e+01  6.1663049612902183e+00  9.3286881746581258e+00  7.4895320003959771e+00  2.2233546929012711e+00  3.4375283802749568e+00  1.4224733084776096e+00  0.0000000000000000e+00  9.2543042782871279e+00  3.5743251841276744e+00  5.5483659591626733e+00  3.4071351727697357e+00  1.2929469560111635e+00  0.0000000000000000e+00  4.5655648847940622e+00  8.4114457891290808e+00  7.4758115686771518e+00  8.1644433374068761e+00  3.4491333985377186e+00  6.8225862535909449e+00  0.0000000000000000e+00  1.0000000000000000e+01  9.3723401129942534e+00  6.2226157267885196e-01  4.9552048327022575e+00  5.4092410666134016e+00  4.1168575219529613e+00  1.4383329486105640e+00  6.3857017551238016e-01  6.8771698187259345e+00  0.0000000000000000e+00  6.2226157267885196e-01  7.5688301435243410e+00  2.8410910359167989e+00  1.7988799930058037e+00  4.5395813572629242e+00  5.2088007182416476e+00  5.6262702526244883e+00  9.3533020976429011e+00  4.9860748516528197e+00  1.0000000000000000e+01  1.0000000000000000e+01  5.6114393421735063e+00  1.0000000000000000e+01  3.1133848382354983e+00  4.3613693215760847e+00  0.0000000000000000e+00  1.8672075345413450e+00  0.0000000000000000e+00  0.0000000000000000e+00  1.8672075345413450e+00  5.6114393421735063e+00  6.8635678710415799e+00  8.1173946976023892e+00  6.8635678710415799e+00  8.1173946976023892e+00  6.6008785233579044e+00  8.7698045064421493e+00  6.2266978879632129e+00  9.3566429294147468e+00  6.6235254850696856e+00  7.0540589601344319e+00  7.7783886078333904e+00  5.9565128238276355e-01  2.4368142171011495e+00  7.6436339509209779e+00  5.5506251570550020e+00  4.0290190637394501e+00  4.6450839902131467e+00  7.9660649639845271e+00  2.4185202497990028e+00  2.1234672943061250e+00  2.1784680791072200e+00  8.6983583417544850e+00  3.4661851746101560e+00  3.1354308235196355e+00  8.7841437579089074e+00  9.4217240874919295e+00  2.6327256748393606e+00  7.6688694466784124e+00  8.7861323027489799e+00  8.6730752937366340e+00  5.7421995282239449e+00  5.7594165700182920e+00  1.3148036830482548e+00  3.2504495004794580e+00  4.6763438072378305e+00  8.3297670059434754e+00  9.4488297758262068e+00  6.2800925680559789e+00  6.9277509891704403e+00  9.4486285242573604e+00  5.1884243250684381e-01  7.0006954677169162e+00  2.7191451418100172e+00  5.9351811816081392e+00  5.9266266658757027e+00  7.7168243490657096e+00  7.3048515529140214e+00  4.4640003000964450e+00  3.9098950530419301e+00  4.6074244519166294e+00  1.7681411386533732e+00  8.2329481102167872e+00  7.3606527737473755e+00  4.6486194018167195e+00  4.9587074817145211e+00  8.0082220305368992e+00  9.4942297714884827e+00  9.5449208571189441e+00  2.7987154056495358e+00  4.0907783340428034e+00  1.5558931927624253e+00  1.9475342538485125e+00  3.9256416986632083e+00  8.3529991454821939e+00  5.0549742518720233e+00  3.4251848090843855e+00  8.9169145240071739e+00  4.8437569505296196e-01  1.3228225027886147e+00  4.5205740204071793e-01  4.1049894219821059e+00  2.9917888225472287e+00  3.1678556899591297e+00  6.5542530970778898e+00  8.9371079112969642e+00  9.4639775762382232e+00  5.7352032706670686e+00  4.9700811198737762e+00  3.9957201915036145e-01  1.3608706071686363e+00  6.4214183951679011e+00  7.3782657330336336e+00  2.3602898103224890e+00  7.0237787496544337e+00  6.4095829722550466e+00  7.2291988806805130e-01  9.4743332994280536e+00  2.3753674142335948e+00  1.8640578294928678e+00  7.3336143430572909e+00  7.6470488627461410e+00  6.2643344727422647e+00  9.0585345404301982e+00  8.5583404584201723e+00  9.3342253052478819e-01  1.4296005462161754e+00  8.5355827398540320e+00  1.0744300899349712e+00  5.3783375539904277e-01  1.4476496215709573e+00  7.2371911183053719e+00  4.2280842500251115e-01  5.7776283735493172e-01  1.0568200364422469e+00  1.3854320844873005e+00  9.4976876969689279e+00  4.9797797703649221e-01  8.1878238630800357e+00  8.2485543063184465e+00  8.6812272328221396e-01  3.4907504748472094e+00  2.4254551355595728e+00  1.6303024835586246e+00  1.7693758910440289e+00  7.9601479498760650e+00  5.8942648746780151e+00  5.9796912339404935e+00  4.4878058395052935e+00  7.2613510693981684e+00  2.3700171437391200e+00  7.7595878130471130e+00  3.5211035455725814e-01  3.0112340162706430e+00  8.8896413615441503e+00  1.9177744168770738e+00  7.5712362258519601e+00  7.4536826431185172e+00  3.2120088135641063e+00  6.3830728410541591e+00  5.3422672622172547e+00  1.7011599036122227e+00  5.4568888238460147e+00  8.8814136139461102e+00  1.5240710800200346e+00  5.5843447784486040e+00  8.2580804514446697e+00  3.4895470464238794e+00  2.6795215379932413e+00  3.4176417542423720e-01  4.1720063109323471e+00  4.5211377843849663e+00  3.9051134065852602e+00  2.8017009836089062e+00  1.0162861097018348e+00  5.0847258912126065e+00  7.6732507302846766e+00  6.9705002505149833e+00  1.7120377930026829e+00  9.6712199854660792e+00  5.9411096621734902e+00  5.2987462242848116e+00  5.4763369318868538e+00  5.9242921411832938e+00  4.2614920986866922e+00  4.3714428190081167e-01  8.3694307647853989e+00  3.2798516043215092e-01  6.5503746936840370e+00  4.6771562457887024e+00  9.6808026134161214e+00  3.0254417838415315e+00  2.2644928254425336e+00  2.2644747009736195e+00  9.6763611205892932e+00  6.5503689171522037e+00  4.5716771146525144e+00  5.3117516533316049e+00  4.6591045087817875e+00  9.6708513091305370e+00  6.1664779040353164e+00  5.6418680876682306e+00  2.2733246918801315e+00  9.6837575645964318e+00  8.3845410433848322e+00  3.1662512297528180e+00  8.4546494518110560e+00  5.0564032616981631e+00  5.8998727117204615e+00  1.0079498698075238e+00  8.6658195080621745e+00  5.2802979592082355e+00  4.3510830698745506e+00  6.7197685783274466e+00  3.7287328490719154e+00  3.6850455858008719e+00  3.2700513446357875e+00  2.8841840296989041e+00  3.6396913091472221e+00  3.0188406431422576e+00  3.8093453313228474e+00  </DataArray> 
</PointData> 
</Piece>
</UnstructuredGrid>
</VTKFile>