<?xml version="1.0"?>
<VTKFile type="UnstructuredGrid"  version="0.1"  >
<UnstructuredGrid>
<Piece  NumberOfPoints="387" NumberOfCells="708">
<Points>
<DataArray  type="Float64"  NumberOfComponents="3"  format="ascii">0 3 0  0 -3 0  6 -3 0  6 3 0  3 -3 0  6 0 0  3 3 0  0 0 0  3 0 0  0 -1.5 0  1.5 -3 0  1.5 3 0  0 1.5 0  6 -1.5 0  4.5 -3 0  6 1.5 0  4.5 3 0  4.25 -1.25 0  1.75 1.25 0  2.25 -1.5 0  4.5 0.75 0  1.541666666666667 -0.2083333333333333 0  3.219827586206896 1.521551724137931 0  1.125 -1.875 0  4.875 1.875 0  0.8702651515151515 0.631628787878788 0  2.25 2.214285714285714 0  3.316176470588236 -1.904411764705882 0  5.214285714285714 -0.75 0  5.03125 -2.03125 0  0.96875 2.03125 0  4.041666666666667 -0.2083333333333333 0  0.8205128205128206 -0.9134615384615387 0  3.942582294752138 2.189194098250713 0  3.061487638533674 -0.968243819266837 0  2.192708333333333 0.4427083333333334 0  4.157850026972511 -2.182329047049442 0  2.331456616463011 -0.5285296485744057 0  3.654761904761905 0.5654761904761902 0  5.25 1.125 0  2.563673341677096 -2.280663329161452 0  5.126674107142857 0.1283482142857142 0  0.75 -3 0  0 -2.25 0  6 2.25 0  5.25 3 0  0.7680051888903191 -0.1384245958639337 0  1.617229471026718 -1.006949429867069 0  4.218940341429579 1.468686552856807 0  3.75 -3 0  2.25 -3 0  0.75 3 0  5.25 -3 0  6 -0.75 0  0 -0.75 0  0 0.75 0  2.25 3 0  6 -2.25 0  0 2.25 0  3.75 3 0  6 0.75 0  1.787573018358365 -2.279142327213878 0  3.195025188237337 2.273430909158844 0  2.528159645294386 1.151699106559287 0  1.041598427383826 1.322848427383826 0  1.520951704545454 0.4634232954545453 0  1.580357142857143 2.325892857142857 0  4.919642857142857 -1.361607142857143 0  4.54981623521892 -0.6483700862895494 0  2.99317863826574 0.6697091957925523 0  3.450169349029507 -0.4574865881858001 0  3.605016126014028 -1.323102984840902 0  2.745144658907412 1.882241931337371 0  0.4898065586600511 1.092777516238393 0  0.5 -1.875 0  1.217028489597945 -2.469323836800685 0  1.659912685567181 -1.604738056701542 0  5.4375 1.6875 0  5.34375 2.34375 0  4.52741779500503 2.384139265001677 0  3.375 -2.514804579549941 0  0.5446428571428571 -2.455357142857143 0  2.766554087216865 -1.745795909102064 0  4.525516559010988 0.1490283123570637 0  3.87554132162248 -0.8280516069565407 0  4.53622906132958 -1.76963146596888 0  0.4243951612903226 1.875 0  0.554851858345021 2.446861709948876 0  5.575604838709677 -1.875 0  5.445148141654979 -2.446861709948876 0  4.875 -2.575604838709677 0  1.440573466105381 1.721823466105381 0  2.193519495405082 1.631799415080963 0  5.472630128027442 -1.330813078900983 0  4.750126894286386 1.343813447143193 0  5.607142857142857 -0.375 0  2.625 2.607142857142857 0  0.3921763197810531 0.375 0  5.60901753622775 0.3750000000000001 0  1.125 2.613454943235572 0  3.701856738980915 1.163867513386733 0  3.736112850688509 1.696746876851408 0  3.519183195491339 0.06065128742606851 0  3.973620778217027 -1.693401606145563 0  0.8125 -1.444978632478633 0  1.256657745408029 -0.6381828923025001 0  0 -1.125 0  5.019997778514942 0.6475044429701156 0  4.125 3 0  1.285569332703024 0.8955310332120207 0  0 -0.375 0  0.4638922275641027 -0.5625 0  2.056635259780241 -0.07226025978024064 0  2.130475508371123 -1.000827820434028 0  2.677484372338113 -1.267299126394495 0  2.848680878891876 -0.4956836878192376 0  4.937901885089369 -0.3340245904575954 0  4.393563081308854 1.919544166973803 0  4.053859126323572 0.2813938488760716 0  1.181051704329518 0.1167440895674965 0  1.971354166666667 2.607142857142857 0  4.875 3 0  2.519350561152006 0.08093582719875507 0  3.139443301924015 -1.442524927271905 0  6 2.625 0  1.849169256239503 1.945480934753207 0  1.867196483071171 0.7892354369530077 0  1.192506522009051 -1.184888428863342 0  3.375 3 0  3.603234392481833 2.536866305538572 0  3.846752908916648 -2.537707634073423 0  2.014339897513945 -1.886932065281681 0  4.038392037966526 0.8363324773944992 0  4.421242701722609 -2.552534687860327 0  3.715389848650903 -2.108856956172843 0  2.985668138820625 1.127780908772207 0  0.4500794934449803 -1.173696061598557 0  3.366760888116476 0.8891914618875614 0  1.869163043700093 -0.6107175804171328 0  2.175114838273305 -2.53928723780967 0  3.014417665538299 -2.241523065744933 0  2.625 -3 0  2.819968145332426 -2.617202329573456 0  5.625 1.3125 0  5.563263538826679 0.814027077653358 0  5.625 3 0  2.550041671270923 0.7074928970804664 0  4.014583091741168 2.59891853892166 0  0.6440729668673318 1.499523832583132 0  5.219449799568244 -1.660557808485412 0  3.474012636702472 -0.9300738420779746 0  0.8125 -2.142857142857143 0  1.875 -3 0  4.945010515846405 2.554471797033147 0  2.611388969012422 -0.8478354915063726 0  3.223746055611014 0.3371683159691745 0  4.843939757110898 -0.9483610977948225 0  4.66556954816842 -2.220888354477256 0  4.125 -3 0  4.448108395110625 -0.2524000502731018 0  5.63671875 2.05078125 0  2.822484133964224 1.491327727709286 0  3.378213092764193 1.903125093887009 0  5.607142857142858 -0.9231200445788541 0  2.12639693023183 1.100450516019641 0  5.625 -3 0  0.375 3 0  0 2.625 0  6 -2.625 0  0.3931307155906299 -0.01856779822591927 0  0.7651723094668359 0.253768144801553 0  0.8549199714190221 -0.5218333744252657 0  1.421989550604507 -2.133299471886336 0  1.582611957351803 -2.615166692128227 0  4.420331038793115 1.133144382396504 0  0.375 -3 0  0 -2.625 0  5.078156723571596 1.54697017071479 0  1.877250715260938 -1.288801575378032 0  2.409169073010687 -1.916147168931784 0  1.146151077069952 -0.268000681695328 0  1.726784828652036 0.1335728643263411 0  2.745628549924675 0.3838821021397905 0  3.011490900297165 2.613625569196862 0  5.62463365164608 -4.137655439684362e-05 0  1.875 3 0  1.125 3 0  6 0.375 0  2.625 3 0  6 -1.125 0  6 -0.375 0  4.875 -3 0  6 -1.875 0  3.375 -3 0  1.125 -3 0  0 -1.875 0  0 0.375 0  0 1.125 0  0 1.875 0  6 1.125 0  6 1.875 0  4.813017731148975 0.9677363687196439 0  2.807371623148303 2.264962208227767 0  0.3692953377255688 0.7436406761680247 0  5.615625 2.615625 0  0.9395725521479794 0.9812935874921043 0  1.390920759130215 1.238984550166515 0  0.9588795022085095 1.672288500195331 0  0.87712392565124 -2.641031728267331 0  0.3665732993114588 -1.532068934251388 0  1.841944504733106 1.591700334213738 0  4.832970185136452 0.3385359233091246 0  4.169083540479082 -0.5746148619765254 0  5.281697083409333 -0.2046640461936881 0  4.072845380968044 1.784516523483641 0  1.293029195762321 -1.543079049035419 0  4.878733886054284 -1.720697370582964 0  3.609167475697567 -1.687579152754035 0  4.836981942878573 2.222259978217028 0  4.204938267037067 -0.9128589669335569 0  5.183079748175263 -1.111742407358677 0  1.22880920402559 2.273525645756405 0  1.469404041858679 2.654509729682302 0  4.566761045622856 -1.414165869120005 0  4.531680518427715 1.606803989975667 0  1.918929241273175 2.27471131819245 0  3.526908551984126 2.207147627530056 0  1.85683899811842 0.4533569963423589 0  1.173935704088662 0.4636872214645547 0  2.116602160898525 -2.207718541460878 0  4.51821874648995 -1.042568353750147 0  2.721551512787618 -0.1859357475290837 0  5.294921875 2.001953125 0  5.288671874999999 2.670703125 0  2.199940744527116 0.7756512213396931 0  4.090519467638897 1.163401080812838 0  2.298177083333333 2.670581371753247 0  2.484362362207526 -2.687319997637033 0  3.300530569898859 1.207053005217563 0  3.936078051808127 -1.362164062673065 0  5.341218841330105 0.5689885832563615 0  4.226314635599414 0.5638853401248238 0  2.524510956818563 1.635483567726497 0  0.3219546452225031 1.389066019009203 0  3.139061555368706 -0.3133905221155423 0  3.145569907612562 -0.6461828528638952 0  3.701427442033566 -0.2272880199383185 0  1.686782510365738 -1.934662341426927 0  2.427696494631844 1.944064773844184 0  3.901817839425732 1.422433381251312 0  2.356489883772755 -0.2025512972825912 0  4.820757576351118 -0.01647699434507374 0  3.064415631228375 1.809719380809516 0  4.643002705009462 2.69782572459795 0  4.31624250429496 2.728112685900672 0  1.520100694408069 -1.314302747998057 0  3.754559308601717 -0.5375020107416889 0  0.25 -2.0625 0  0.8125 -1.826636904761905 0  4.861738621091127 -0.6367294570749906 0  1.545149590740081 2.015832101819233 0  3.857113324620078 0.04127675193819436 0  0.2479605082936806 -0.9375 0  4.21293081604216 2.352874368135467 0  3.123697687162562 -2.708090473740421 0  3.415275466010259 -2.202892416689829 0  3.601103065320932 -2.727566580522146 0  1.558629964945672 -0.5289921609136927 0  3.324859026263307 -1.198136798699183 0  2.424350759683917 -1.092246517929194 0  2.746461744851735 0.9398108087856579 0  0.8882026075771248 2.364936378889839 0  0.8066140242673685 2.679750706449505 0  4.504454978490482 0.4491616076730165 0  4.26881784709759 -0.009649566552704852 0  1.3125 -2.75919801263958 0  1.120577805361368 -2.179971784090952 0  3.734048623985226 0.8602850349907256 0  3.527828882622877 1.432983527791925 0  1.959527908877504 -1.578124930685265 0  0.7602573574724077 1.220872343399509 0  0.6691217533356228 0.8531987603309893 0  1.877213035764122 -2.564340152892596 0  3.32172153715047 2.685939810104955 0  4.285565286275464 -1.569057178671076 0  4.227521511146333 -1.876903861267543 0  5.34375 1.40625 0  5.71875 1.59375 0  1.56245959534423 0.766197796710638 0  0.2458241530773257 2.4375 0  0.2794123857609179 2.138568368155198 0  5.754175846922674 -2.4375 0  5.720587614239082 -2.138568368155198 0  0.6472458227887359 2.124973059628837 0  5.124241021325378 -2.352544055105642 0  5.189172233440652 -2.675873509996353 0  5.364643151640443 -2.12768524739804 0  2.298896485720138 1.348573610321417 0  0.6008689899200503 -2.745193425346304 0  0.307092513690391 -2.651812055231556 0  0.2683745826107009 -2.363146293324415 0  0.5223214285714285 -2.165178571428571 0  0.3925308914031174 2.699891746740618 0  5.607469108596883 -2.699891746740618 0  2.138365140930822 1.917102089073091 0  1.25507379660067 1.953406658386351 0  4.135759889512124 -2.476847355718572 0  0.5330865684534913 -0.8980875812659357 0  2.548249345531056 -1.538893887888457 0  2.67686064875775
[...]
<PointData  Scalars="f_30-2"> 
<DataArray  type="Float64"  Name="f_30-2"  format="ascii">1.0000000000000000e+01  0.0000000000000000e+00  0.0000000000000000e+00  1.0000000000000000e+01  0.0000000000000000e+00  4.9999895287194018e+00  1.0000000000000000e+01  4.9999895287194018e+00  4.9999894369540661e+00  2.4999925459940724e+00  0.0000000000000000e+00  1.0000000000000000e+01  7.4999926275622810e+00  2.4999925459940724e+00  0.0000000000000000e+00  7.4999926275622810e+00  1.0000000000000000e+01  2.9166583352265119e+00  7.0833249482479497e+00  2.4999924864248686e+00  6.2499903068754712e+00  4.6527672981941057e+00  7.5359121864857652e+00  1.8749941625425313e+00  8.1249941530119969e+00  6.0527047083916568e+00  8.6904719665647079e+00  1.8259746896296380e+00  3.7499902544198567e+00  1.6145782066238599e+00  8.3854115752153078e+00  4.6527673418763751e+00  3.4775547472382957e+00  8.6486524874418329e+00  3.3862511472948125e+00  5.7378369810576402e+00  1.3627805336442933e+00  4.1191070999777324e+00  5.9424502702372273e+00  6.8749912333397214e+00  1.1988905756035790e+00  5.2139031688937409e+00  0.0000000000000000e+00  1.2499959541203169e+00  8.7499959902138382e+00  1.0000000000000000e+01  4.7692818673834347e+00  3.3217418200953168e+00  7.4478033631826550e+00  0.0000000000000000e+00  0.0000000000000000e+00  1.0000000000000000e+01  0.0000000000000000e+00  3.7499902730892365e+00  3.7499902730892365e+00  6.2499903453291434e+00  1.0000000000000000e+01  1.2499959541203169e+00  8.7499959902138382e+00  1.0000000000000000e+01  6.2499903453291434e+00  1.2014255578193660e+00  8.7890476113488472e+00  6.9194898565426985e+00  7.2047392880816021e+00  5.7723619253401539e+00  8.8764844383174850e+00  2.7306467817726188e+00  3.9193732590208019e+00  6.1161721269122413e+00  4.2375121138772016e+00  2.7948202443259338e+00  8.1370640730598964e+00  6.8212869763447808e+00  1.8749941330225337e+00  8.8445738576166621e-01  2.3254294942496578e+00  7.8124933074626179e+00  8.9062464827313654e+00  8.9735621094043250e+00  8.0865639013442914e-01  9.0773514352377782e-01  2.0903337378818660e+00  5.2483700177130279e+00  3.6199044720442113e+00  2.0506078900436049e+00  8.1249941627201903e+00  9.0780998508400295e+00  1.8749941509404719e+00  9.2189416068479202e-01  7.0732293050531381e-01  7.8696992524039304e+00  7.7196587827864143e+00  2.7819701045902030e+00  7.2396810625976453e+00  4.3749896982082062e+00  9.3452359626835122e+00  5.6249896441399416e+00  5.6249897205128727e+00  9.3557561247651719e+00  6.9397706067509315e+00  7.8279048272394398e+00  5.1010749696957465e+00  2.1776573039615781e+00  2.5916946145759545e+00  3.9363518981109236e+00  3.1249912415183831e+00  6.0791641219869099e+00  1.0000000000000000e+01  6.4925423013979024e+00  4.3749896707352445e+00  4.0624899353268900e+00  4.8795557020358542e+00  3.3319444769314055e+00  2.8878264568903691e+00  4.1738503122638582e+00  4.4432819950698219e+00  8.1992346226194393e+00  5.4689793678887213e+00  5.1945629651416771e+00  9.3452359424561191e+00  1.0000000000000000e+01  5.1348825211236431e+00  2.5957840257350706e+00  9.3749979561394365e+00  8.2424626935412917e+00  6.3153827214479552e+00  3.0251773681022174e+00  1.0000000000000000e+01  9.2281079960557264e+00  7.7048475508868897e-01  1.8551074321293759e+00  6.3938779471632774e+00  7.4577307391267922e-01  1.4852336536439048e+00  6.8796261062957553e+00  3.0438312881777514e+00  6.4819763726405961e+00  3.9821273748821056e+00  7.6785208636289981e-01  1.2641241331043112e+00  0.0000000000000000e+00  6.3799401356471319e-01  7.1874918952502176e+00  6.3567021617265222e+00  1.0000000000000000e+01  6.1791450100041363e+00  9.3315287105837630e+00  7.4991989978759994e+00  2.2323968575384443e+00  3.4498676106570789e+00  1.4285668495325612e+00  0.0000000000000000e+00  9.2574505762493651e+00  3.5869313249590742e+00  5.5619368778284608e+00  3.4193889315714694e+00  1.2985152215813047e+00  0.0000000000000000e+00  4.5793228014803002e+00  8.4179637427098744e+00  7.4855387484525346e+00  8.1718694517627259e+00  3.4614573194947922e+00  6.8340754045570531e+00  0.0000000000000000e+00  1.0000000000000000e+01  9.3749979561394365e+00  6.2499796212460168e-01  4.9690431447384444e+00  5.4229364815454586e+00  4.1302675434004659e+00  1.4444962316615839e+00  6.4138673978463656e-01  6.8885652366671088e+00  0.0000000000000000e+00  6.2499796212460168e-01  7.5782763624838108e+00  2.8519891689229815e+00  1.8064157457853847e+00  4.5533217772354950e+00  5.2226109298434800e+00  5.6397932046099895e+00  9.3560405087925229e+00  4.9999204938287773e+00  1.0000000000000000e+01  1.0000000000000000e+01  5.6249896403715329e+00  1.0000000000000000e+01  3.1249912415183831e+00  4.3749896707352445e+00  0.0000000000000000e+00  1.8749941532938166e+00  0.0000000000000000e+00  0.0000000000000000e+00  1.8749941532938166e+00  5.6249896403715329e+00  6.8749912104076163e+00  8.1249941376025223e+00  6.8749912104076163e+00  8.1249941376025223e+00  6.6128847654549565e+00  8.7749330556099476e+00  6.2393914709526479e+00  9.3593728897729456e+00  6.6354801642520975e+00  7.0649659041931629e+00  7.7871407891850222e+00  5.9827847535750089e-01  2.4465444532308700e+00  7.6528268378408502e+00  5.5642161838028938e+00  4.0422985053755260e+00  4.6588827809744888e+00  7.9741879570956886e+00  2.4281942807566903e+00  2.1321645039623136e+00  2.1873613887907770e+00  8.7037624656485928e+00  3.4785590359219514e+00  3.1470871794591488e+00  8.7892055152372794e+00  9.4241809843768767e+00  2.6430491163783572e+00  7.6779996367227161e+00  8.7911816548339825e+00  8.6785751367970896e+00  5.7555848147598123e+00  5.7728018326309112e+00  1.3204648277838449e+00  3.2623770655222182e+00  4.6900967041697346e+00  8.3365833018928512e+00  9.4511700687827460e+00  6.2927423619658933e+00  6.9389931893369923e+00  9.4509671568867635e+00  5.2113162237354937e-01  7.0117465396022371e+00  2.7297186068121575e+00  5.9483043316719355e+00  5.9397988409549232e+00  7.7257990469529174e+00  7.3151021502357088e+00  4.4776721232834831e+00  3.9230186305529853e+00  4.6211762087363670e+00  1.7755572106165340e+00  8.2401024913804619e+00  7.3707145867578738e+00  4.6624040455593452e+00  4.9725278614847994e+00  8.0161928382407623e+00  9.4963745551144463e+00  9.5468529914649505e+00  2.8094873337517545e+00  4.1041531582977493e+00  1.5624950594170586e+00  1.9555991045428402e+00  3.9387742717547019e+00  8.3597150198294337e+00  5.0687840867973595e+00  3.4374906977986117e+00  8.9214537777552447e+00  4.8651427855164164e-01  1.3285083676636620e+00  4.5405419814906817e-01  4.1183363057817637e+00  3.0030968052271150e+00  3.1795803314614877e+00  6.5663421070053607e+00  8.9415572019676155e+00  9.4662494302545799e+00  5.7485924830034545e+00  4.9839068866162011e+00  4.0133532462515625e-01  1.3667093058165114e+00  6.4337989044466850e+00  7.3882981648997568e+00  2.3697846108151626e+00  7.0347787991923809e+00  6.4219884244412757e+00  7.2609737204055025e-01  9.4765646305724953e+00  2.3848975196698663e+00  1.8718210866620386e+00  7.3437422425107011e+00  7.6562429205558766e+00  6.2769866767920481e+00  9.0624969324817322e+00  8.5642760627201593e+00  9.3749693828775427e-01  1.4357148026072606e+00  8.5416171266157868e+00  1.0790897602146481e+00  5.4020903103285300e-01  1.4538532469626664e+00  7.2476146636109071e+00  4.2467622513547898e-01  5.8031132541300467e-01  1.0614193801993508e+00  1.3913645960451315e+00  9.4998179404652472e+00  5.0017876690062124e-01  8.1951644954610021e+00  8.2556722874829500e+00  8.7191821928887958e-01  3.5031779725056222e+00  2.4351694988738166e+00  1.6371859131612343e+00  1.7767916344831669e+00  7.9682953318839020e+00  5.9074805977254936e+00  5.9927966011088163e+00  4.5015134658488272e+00  7.2716831917173561e+00  2.3795327491468550e+00  7.7683933383148078e+00  3.5366147933287340e-01  3.0225987419546945e+00  8.8942756008113548e+00  1.9257232008182898e+00  7.5806749704932352e+00  7.4634401390109470e+00  3.2238297019605211e+00  6.3955122722967346e+00  5.3559642416159345e+00  1.7083207916319592e+00  5.4705378072182276e+00  8.8860979854840405e+00  1.5305671379804850e+00  5.5978786444404873e+00  8.2651445943854593e+00  3.5019574125785136e+00  2.6899570382204154e+00  3.4327511454675252e-01  4.1854164554988413e+00  4.5348292819551670e+00  3.9182233665374087e+00  2.8124918814033371e+00  1.0207050215980389e+00  5.0985584188517157e+00  7.6823375699614251e+00  6.9816383451645283e+00  1.7192302018192938e+00  9.6726179623325059e+00  5.9542574325707607e+00  5.3124895502122174e+00  5.4900161014766411e+00  5.9374899042737370e+00  4.2750149246577580e+00  4.3907304064821479e-01  8.3760910482836923e+00  3.2943586224712595e-01  6.5624907313818754e+00  4.6909217489988970e+00  9.6821580732314789e+00  3.0368065426506101e+00  2.2736468464333730e+00  2.2736468179259997e+00  9.6777363469899047e+00  6.5624907172972540e+00  4.5854183878386161e+00  5.3254797843241608e+00  4.6728635689806159e+00  9.6722459544631789e+00  6.1793025447213417e+00  5.6553430107784619e+00  2.2825368416436307e+00  9.6851010011011383e+00  8.3911371247832847e+00  3.1779749071588288e+00  8.4609779218503842e+00  5.0702421323788531e+00  5.9130891037389430e+00  1.0123305372305598e+00  8.6713544516338708e+00  5.2940614512904816e+00  4.3647023928725588e+00  6.7314937745710255e+00  3.7415484375459092e+00  3.6978085983432507e+00  3.2820341550586778e+00  2.8951775169137037e+00  3.6523768305980107e+00  3.0301980126061174e+00  3.8223141966347898e+00  </DataArray> 
</PointData> 
</Piece>
</UnstructuredGrid>
</VTKFile>