<?xml version="1.0"?>
<VTKFile type="UnstructuredGrid"  version="0.1"  >
<UnstructuredGrid>
<Piece  NumberOfPoints="508" NumberOfCells="920">
<Points>
<DataArray  type="Float64"  NumberOfComponents="3"  format="ascii">-0.9977668786231532 0.0667926337451217 0  -0.9977668786231532 -0.06679263374512145 0  -0.9799617050365869 -0.1991859851038361 0  -0.9446690916079188 -0.3280248578395691 0  -0.8925188358598815 -0.4510101192161015 0  -0.8244415603417605 -0.5659470943305949 0  -0.7416521056479575 -0.6707847301392236 0  -0.6456278515588025 -0.7636521965473319 0  -0.5380823531633728 -0.842892271416797 0  -0.4209347624283351 -0.9070909137343407 0  -0.296275580885634 -0.9551024972069124 0  -0.1663293545831301 -0.9860702539900286 0  -0.03341497700767455 -0.9994415637302546 0  0.1000956916240984 -0.994977815088504 0  0.2318201502675284 -0.9727586637650372 0  0.3594077728375122 -0.9331806110416029 0  0.4805817551866832 -0.8769499282066718 0  0.5931797447293548 -0.8050700531275633 0  0.6951924276746418 -0.7188236838779297 0  0.7847993852786612 -0.6197498889602446 0  0.8604015792601392 -0.5096166425919179 0  0.9206498866764287 -0.3903892751634952 0  0.9644691750543765 -0.2641954018712863 0  0.99107748815478 -0.1332869553737791 0  1 0 0  0.9910774881547801 0.1332869553737788 0  0.9644691750543766 0.264195401871286 0  0.9206498866764288 0.3903892751634948 0  0.8604015792601394 0.5096166425919174 0  0.784799385278661 0.6197498889602449 0  0.6951924276746423 0.7188236838779293 0  0.5931797447293553 0.8050700531275629 0  0.4805817551866838 0.8769499282066715 0  0.3594077728375128 0.9331806110416025 0  0.2318201502675284 0.9727586637650372 0  0.1000956916240984 0.994977815088504 0  -0.03341497700767452 0.9994415637302546 0  -0.16632935458313 0.9860702539900286 0  -0.2962755808856338 0.9551024972069124 0  -0.4209347624283349 0.9070909137343408 0  -0.5380823531633726 0.8428922714167971 0  -0.6456278515588024 0.7636521965473321 0  -0.7416521056479576 0.6707847301392235 0  -0.8244415603417601 0.5659470943305954 0  -0.8925188358598811 0.4510101192161021 0  -0.9446690916079189 0.3280248578395689 0  -0.9799617050365867 0.1991859851038363 0  -1.110223024625157e-16 5.551115123125783e-17 0  0.1484693405008958 -0.4786200653026715 0  0.08335080976663273 0.4941385984623655 0  0.4880274583994738 -0.1109503026394692 0  -0.4613552055099581 -0.1956315064808547 0  -0.3855339898178651 0.3191305571435589 0  0.475527768950368 0.3185560908577614 0  -0.2508414948435186 -0.5405494177944826 0  -0.6549537109042289 0.08808270501604751 0  0.4950890304776528 -0.4477815935191051 0  -0.2313799952202983 0.6217447664261749 0  -0.08542212385907175 -0.2888360359394294 0  0.2788822864291484 0.09789814246948701 0  0.6916123159333546 0.1099095985810387 0  0.3821454407901005 0.5986210785495554 0  -0.5712089611158145 -0.4510792144656493 0  -0.0197887058348695 -0.71203010988391 0  -0.6405082694597292 0.3793736340129803 0  -0.3949972812928297 0.05755941447655002 0  0.0002359772553628126 0.7410750061239106 0  -0.7206584552732724 -0.1974087457923452 0  0.3145255478437893 -0.6777849967546719 0  0.6884697611371799 -0.2752377542153515 0  0.1737575248821601 -0.208437752813689 0  0.07166954517456835 0.2420099173304179 0  -0.1753795001067363 0.1805706949882732 0  -0.4654884266447623 0.5504306763404097 0  -0.2425122205716761 -0.1176960813233016 0  0.7010807793439928 0.3359327308380552 0  -0.1340118944890078 0.4099629492688598 0  0.2807168519115236 0.4092008783294876 0  -0.4507912457721919 -0.6382051668259956 0  -0.2291296070359737 -0.7526952684919148 0  0.5744451675802464 0.5071389825880765 0  0.4854874660149399 0.09565147897727026 0  0.221604594782947 0.7513856383333605 0  -0.2954086755878693 -0.3310497397577151 0  -0.05075636362084365 -0.5123554677049466 0  0.3123918012790539 -0.3576880715973424 0  0.7830890117826151 -0.08342328946038781 0  -0.7733870227149446 0.2399595920526398 0  -0.8215511052242777 1.387778780781446e-16 0  0.5009706800552168 -0.6382760770589374 0  0.6807106164512935 -0.4611804850416638 0  -0.1766401486818353 0.7999410867450685 0  0.1573969839158699 -0.7928103259731504 0  -0.3961501718871323 0.7228819260118001 0  -0.5108985821130179 0.192709323263794 0  -0.5918277090331916 -0.07675206898985067 0  -0.3140769863708209 0.4733005296717158 0  -0.07008810525971193 0.5676260619771508 0  0.4642954875662 -0.2799375040122329 0  -0.4057456806027957 -0.4769097517805672 0  0.335870602298643 -0.1757419446910802 0  0.1691373895602631 -0.03564657961563138 0  -0.7318601216448578 -0.4334814196416052 0  0.3039432347300152 -0.5177999635171113 0  0.2184339730116692 0.587314853078475 0  0.1216049475032755 -0.6366053795956126 0  0.8104620564241116 0.2181406871153659 0  0.3266581634999758 0.2532733639034654 0  -0.1028045455250605 -0.843838850066378 0  -0.631891193676907 0.5456226753761697 0  -0.2400248288890713 0.03843243962534251 0  0.8428777782852562 0.06317398551261103 0  0.01734865746192224 -0.1621804442269221 0  -0.1695440613905134 -0.4137646322131187 0  0.03020674053853799 -0.3853509697624626 0  0.6299948468517688 -0.03755293874492843 0  0.5810229530677929 0.2115949539620958 0  0.5561714315360895 0.6578426477791535 0  0.3625868192000375 -0.02742378212873013 0  0.434305906167255 0.4604122188991895 0  0.3791784172226825 0.7562417894117901 0  -0.6380991870032517 -0.3196282862521024 0  0.1315613093789783 0.1070984898964286 0  -0.6000369145055759 -0.6204336068365621 0  -0.1430418090217789 -0.6367007178026756 0  -0.4387312330115738 -0.337294886331069 0  0.7176637430284536 0.4806358179060751 0  -0.5316839902524402 0.6772114241630236 0  0.8246063054232909 -0.2231475328239589 0  0.1062752649459641 0.845958629132682 0  0.1764346063342348 -0.3449629210053166 0  -0.3764248571074617 -0.7660481588580963 0  -0.1297196371374111 -0.04140898349368184 0  0.1447179564815006 0.3649604834311199 0  0.003684411955317005 0.377126861849311 0  -0.2403307866804557 0.3107098832542684 0  0.0872982116973036 0.6329229939305998 0  -0.6413358364929169 0.2208173787435057 0  -0.09132506789419567 0.2838388372860096 0  0.03701753768445647 -0.8678949407584077 0  -0.4987988080467024 0.4094469991460181 0  -0.7774174394608038 0.3768330056999326 0  -0.458226769750803 -0.06116020850119247 0  -0.5262100816412104 0.06230651678410006 0  -0.3796857817646373 0.1879622209562439 0  -0.0567448500044636 0.8650282510438168 0  -0.8500731973381305 -0.2328591061275693 0  0.4277086089990101 -0.7522253963757837 0  0.2929966237803169 -0.8132099259138896 0  0.594398936399667 -0.3644455577316758 0  0.5749513628356067 -0.2093176095329658 0  0.7849285328462089 -0.3723961062645635 0  -0.3123272247201331 -0.6540260906111137 0  0.654418857416429 -0.5918869148043215 0  -0.1203793696043246 0.6851525430570952 0  0.199082398687371 0.2494856821799182 0  -0.03458824798810893 0.1418602438953871 0  -0.8594731987221773 0.1324251091584046 0  -0.3185495176998241 0.8270946151977685 0  -0.1260082483504524 -0.1684233999756352 0  -0.595546022112547 -0.2018894817568753 0  -0.354489546211577 0.6059660517696436 0  0.6832974707932589 -0.153441965731541 0  -0.7177316734349385 -0.07142617830072907 0  0.6630793693306763 0.5943461520761344 0  -0.2244680388534782 -0.235403847345017 0  -0.3390869414356401 -0.1927375798500443 0  -0.8802492525901756 -0.1109866089681702 0  -0.1761793425296924 0.5188499091616451 0  -0.8220893583818888 -0.351508751237488 0  0.8917514395399636 -0.04224969810252864 0  -0.3395553383881443 -0.04816636125851745 0  -0.5333978123052439 -0.7239333589966683 0  0.4224368174965719 -0.5453628228691546 0  -0.70300460746501 -0.555157197606978 0  0.2978362684330649 0.8367268161637212 0  0.07018312447463183 -0.271092034857551 0  -0.5561003706640285 0.2996527888843045 0  -0.1300863074814372 0.07420141125282595 0  0.5840980892095232 0.3818417136657613 0  0.8179137266985652 0.3347418381519952 0  0.6974451505770903 0.2228751425098662 0  0.4365153441720279 0.2051381471872808 0  -0.2100143158696352 -0.8812574965597832 0  -0.2637307741436291 0.7291884348842209 0  -0.710600535141177 0.4663545219700386 0  -0.5156904759276534 -0.5476604996054697 0  0.3027906494659447 0.6759655991905769 0  0.4893843474579975 0.7666080885195945 0  0.2682193122216402 -0.08699082272704056 0  0.2296209105091421 -0.6030585651228333 0  0.3846697281949546 -0.4414075553505956 0  0.1936703411722322 0.4787089853316791 0  0.3351302740257274 0.5019302113422823 0  0.3798924840530512 0.3676828858863948 0  0.5839133885206031 -0.5097071283502206 0  -0.2743004949032621 -0.4360496254419716 0  0.7271934590307132 0.008437207956642198 0  0.1141037737217874 0.7378982231163933 0  0.4800818293421377 0.5566353916149011 0  0.01371547930243983 -0.6045952088636476 0  -0.1215289255282704 -0.7399989459471547 0  -0.8809671812302647 0.2413218426264599 0  0.5973877487614432 -0.6802228294861389 0  0.1385783133708268 -0.8966807941043093 0  -0.6361721719175075 0.6577971882230937 0  -0.761880080492889 0.08873013289619691 0  -0.5350352334762293 -0.2903184799468499 0  0.3823855707498364 0.1152308585917207 0  0.4661138947116834 -0.00790320685560468 0  0.5881625288981065 0.1083805023091902 0  -0.3304870265919549 -0.8580896372428521 0  -0.2790633380898983 0.1419570559250456 0  -0.01869943422869237 0.4779926506922626 0  0.2372882369505303 -0.4274495862149768 0  0.2684147790217246 -0.2595252161661356 0  0.0307280981574117 0.9190770493676153 0  0.2007221047488624 -0.7006799408102069 0  -0.1495285445824645 -0.5354680322125105 0  0.04715958204449366 -0.4854666211370705 0  -0.07113600645835141 -0.3892422161109351 0  -0.3495473424906004 -0.5604629734551879 0  0.8905808235698089 0.1540261319219242 0  0.4547834487994957 0.6704735911437807 0  0.07267780462532272 -0.07424368531331477 0  0.3658251053604427 -0.2748176222440673 0  -0.2133669562535909 0.8953257730931991 0  -0.3986543485680253 0.4188567434676204 0  0.06027165848136368 -0.7711356104633214 0  -0.7262915490405947 0.5735467118273136 0  0.3862613460703281 -0.8399488382353471 0  0.86482688341834 -0.1351662048992483 0  0.8618628668898114 -0.3129506593749384 0  -0.707706290316663
[...]
<PointData  Scalars="f_27-2"> 
<DataArray  type="Float64"  Name="f_27-2"  format="ascii">0.0000000000000000e+00  0.0000000000000000e+00  0.0000000000000000e+00  0.0000000000000000e+00  0.0000000000000000e+00  0.0000000000000000e+00  0.0000000000000000e+00  0.0000000000000000e+00  0.0000000000000000e+00  0.0000000000000000e+00  0.0000000000000000e+00  0.0000000000000000e+00  0.0000000000000000e+00  0.0000000000000000e+00  0.0000000000000000e+00  0.0000000000000000e+00  0.0000000000000000e+00  0.0000000000000000e+00  0.0000000000000000e+00  0.0000000000000000e+00  0.0000000000000000e+00  0.0000000000000000e+00  0.0000000000000000e+00  0.0000000000000000e+00  0.0000000000000000e+00  0.0000000000000000e+00  0.0000000000000000e+00  0.0000000000000000e+00  0.0000000000000000e+00  0.0000000000000000e+00  0.0000000000000000e+00  0.0000000000000000e+00  0.0000000000000000e+00  0.0000000000000000e+00  0.0000000000000000e+00  0.0000000000000000e+00  0.0000000000000000e+00  0.0000000000000000e+00  0.0000000000000000e+00  0.0000000000000000e+00  0.0000000000000000e+00  0.0000000000000000e+00  0.0000000000000000e+00  0.0000000000000000e+00  0.0000000000000000e+00  0.0000000000000000e+00  0.0000000000000000e+00  6.8687954554928604e+02  5.1420556401914178e+02  5.1340451222352044e+02  5.1516335454767705e+02  5.1442036840070455e+02  5.1457709324351310e+02  4.6083173930278548e+02  4.4294099036398734e+02  3.8596791050854182e+02  3.8096717915674373e+02  3.8543666495836527e+02  6.2438166040780732e+02  6.2704928694283035e+02  3.4965124771913617e+02  3.4000303937393846e+02  3.2297488283957551e+02  3.3774531608192120e+02  3.0573355944908593e+02  5.7702407595918839e+02  3.0905986787541042e+02  3.0267643384927192e+02  3.0256147232424996e+02  3.0868356473683360e+02  6.3609715308628392e+02  6.4301447228502229e+02  6.4321872117966814e+02  3.2959046919068834e+02  6.3710326375756995e+02  2.7162276791370829e+02  5.5809838911669090e+02  5.1764072054650251e+02  2.6731399621463009e+02  2.6044549232038179e+02  2.8248938340413019e+02  5.1903641869955129e+02  2.6462182882412662e+02  5.5188704495977299e+02  5.0438256027520453e+02  5.3225062115505898e+02  2.6081258269477144e+02  2.3499921029324733e+02  2.2248336119327936e+02  2.3396078947597246e+02  2.2256097938803239e+02  2.2511087115251482e+02  2.3756499918261855e+02  2.1976594968960563e+02  4.8178257219143001e+02  4.4190247771960765e+02  4.6476646101041240e+02  4.6246950910962386e+02  4.8473622436219625e+02  4.1704293159611433e+02  5.8799977989208867e+02  6.6645467043030135e+02  1.8864688020515607e+02  4.3927134135730722e+02  4.1662917340431881e+02  3.9825714575205967e+02  2.0208842600206964e+02  5.7006531828163804e+02  1.8947321845681859e+02  2.0752405178719633e+02  6.4545592023539859e+02  1.9458783299807595e+02  6.6854782368044255e+02  5.4903997438643273e+02  5.8389434874182371e+02  4.1253270463344182e+02  4.2421247836950391e+02  1.7614978190145209e+02  5.9630056138557154e+02  4.1121619083331791e+02  1.9505325809494988e+02  3.3713183604905720e+02  6.6681695695162250e+02  1.7367058090711097e+02  3.9336897444840287e+02  4.7610702349717633e+02  1.7294685872369689e+02  1.7654874799604241e+02  1.8438209451587483e+02  1.8678388538944770e+02  5.8269986154993285e+02  1.8546263758733363e+02  6.7440361193482704e+02  5.8087295386824803e+02  5.8792248589458472e+02  5.8076312786047163e+02  4.0593344417392353e+02  3.7001355345625046e+02  6.2592362463473614e+02  1.6696263603069943e+02  4.0027259985371882e+02  1.7285916570957775e+02  5.3925243576030016e+02  4.9319737888610041e+02  5.6443049947362749e+02  1.6956095799065614e+02  1.5164688520294249e+02  1.7073489347284462e+02  1.7229034701465147e+02  3.5203592339923216e+02  4.3015590991771643e+02  1.6689635976583702e+02  3.2676469758551161e+02  1.5228556346291876e+02  3.5494437071783233e+02  6.1799607360826315e+02  6.7206096082602414e+02  1.6652596878667796e+02  1.4701104685724931e+02  6.5709229519063297e+02  4.1549032011635660e+02  3.4843911478873827e+02  3.4979932097373438e+02  3.2961000837029354e+02  1.4079739975306381e+02  6.1479186814356967e+02  5.8282400580850083e+02  1.4492306279137003e+02  4.8105831497213256e+02  1.3724485138496598e+02  1.3913142800190215e+02  6.0572902779514243e+02  1.3071596169709582e+02  3.6029558778039564e+02  1.3412043282477617e+02  1.4491619554082015e+02  6.3347627613419286e+02  4.1361765477982931e+02  6.7224390963340568e+02  3.5295295785943989e+02  1.5054588839985502e+02  3.1895955691775060e+02  5.2735334251718155e+02  1.2218560896962404e+02  2.7414509407820003e+02  1.9054327422484562e+02  2.9820661915973324e+02  3.1026445688666269e+02  1.1741571676435751e+02  6.3273087785287316e+02  4.0090580895330879e+02  4.5109709437878632e+02  5.0319087270098618e+02  4.3621650551269562e+02  4.9435017654406784e+02  2.7343334721871730e+02  5.0462206950989952e+02  3.2337672147600443e+02  3.0333498665955113e+02  3.1598673517572405e+02  4.3625270383492239e+02  3.0085938837543381e+02  1.1265806770510913e+02  1.2341449034490520e+02  1.2052398495098838e+02  1.1121362285037317e+02  2.8272037824560903e+02  4.3228705079223226e+02  5.7707483109023258e+02  5.3785439968015919e+02  4.4103506841273969e+02  1.0536934987987892e+02  6.2048838241157387e+02  5.2987464936020706e+02  5.2293010922342376e+02  5.9150434717437327e+02  1.0552182603209894e+02  3.2177661714966604e+02  4.7455354960760536e+02  5.2356262445831396e+02  5.7970329244055347e+02  3.8670958219614585e+02  1.2514943104712223e+02  2.3578134072750569e+02  6.8027964980243280e+02  5.4317221174850465e+02  1.0393905344025646e+02  4.5718258893783081e+02  2.7545335580505957e+02  9.7962430564674477e+01  9.8950831071210928e+01  1.5950551748460137e+02  1.0884602624349725e+02  2.7592496796666552e+02  1.3190829351348901e+02  5.2110533398439600e+02  2.7421748593782104e+02  3.1244823877755459e+02  6.7798093522181341e+02  1.1541612669596971e+02  1.1210720359246497e+02  4.0138567142496851e+02  2.5238520943106411e+02  5.9631138138478832e+02  2.7158674869125269e+02  2.6491649443495106e+02  2.7128521609511660e+02  1.2687696501452690e+02  5.7297708142800514e+02  6.3460175292647875e+02  1.3580580889442490e+02  3.6048706079506178e+02  4.8953364009746826e+02  2.4212500375504374e+02  0.0000000000000000e+00  2.2827570080026015e+02  4.3005802961560403e+02  4.5725559473174832e+02  0.0000000000000000e+00  5.7371243576822224e+02  0.0000000000000000e+00  3.2437079946625880e+02  2.4464759187532337e+02  1.1564321547240101e+02  5.2318181954770876e+02  5.3795420033359949e+02  4.8454100188033090e+02  4.4524354130209883e+02  0.0000000000000000e+00  5.7121787102224084e+02  1.7777192007946874e+02  6.5679004987458711e+02  4.3719146078803931e+02  3.7682997172896387e+02  4.7916542232692888e+02  4.7165412064317047e+02  5.4018113866683791e+02  1.1755797540063732e+02  3.6038532007649593e+02  1.1926002809334440e+02  4.0328744931885387e+02  0.0000000000000000e+00  6.8079519722821965e+02  6.7922708426803092e+02  6.5257151856351959e+02  3.6355618469808087e+02  2.4218784049863226e+02  3.4106439788032145e+02  6.1394924704477785e+02  4.9443308613021924e+02  1.5216212660451652e+02  1.1678459727632476e+02  3.8079261967323117e+02  4.2341607429725701e+02  4.0506565841655510e+02  4.3987069401472905e+02  9.9733050245924659e+01  4.0372849373573689e+02  4.8144032953987261e+02  4.6519943471456281e+02  6.5005667112755646e+02  6.6222514007463280e+02  3.7163250879059495e+02  3.4477033557072889e+02  2.6903241090156303e+02  2.6538054749228007e+02  5.5137619712388096e+02  6.2115462120916948e+02  3.1846364953158405e+02  6.5306088905624426e+02  2.0731485918414455e+02  3.8138289913803732e+02  4.6710651971053903e+02  1.4835018052182301e+02  2.4303918801149780e+02  1.0597228593885252e+02  6.4531334883538580e+02  9.3231469775382195e+01  4.9300845428738307e+02  5.1735786488016390e+02  1.0520881232422758e+02  5.2084901049425127e+02  1.1340853651366125e+02  1.0452189256141439e+02  1.0305799940327645e+02  0.0000000000000000e+00  2.5540696669807883e+02  2.3935773786599839e+02  4.7494722580130548e+02  2.2085649667377407e+02  3.5715130061001372e+02  6.1226863416436584e+02  4.0159327506240743e+02  3.9183195880185764e+02  4.7792782099246455e+02  3.4320051010706675e+02  0.0000000000000000e+00  2.2615480331928481e+02  9.9863956937720431e+01  2.3193457189144047e+02  6.4787709123043282e+02  2.7591597122987332e+02  2.2034172105255050e+02  2.3202207423820946e+02  3.7731937627428567e+02  0.0000000000000000e+00  6.5059752080718238e+02  6.1531754726622967e+02  6.3965977320247327e+02  2.1424441135395443e+02  1.0073735831863875e+02  6.4523338986975477e+02  4.2347999069047125e+02  9.3218044391958443e+01  1.0188538912790209e+02  5.3453074615244645e+02  5.4391846069869200e+02  0.0000000000000000e+00  2.9346518004807325e+02  6.0443022647890018e+02  2.7414030832926119e+02  3.4804930587525917e+02  2.1577067497987724e+02  1.0311901707257060e+02  9.9978899704895952e+01  0.0000000000000000e+00  5.9893080739774041e+02  2.4217681815307236e+02  6.1874353210923186e+02  6.2505455117112058e+02  9.6951542409417442e+01  0.0000000000000000e+00  5.9483143116647170e+02  5.9463183964885354e+02  5.6166412401116270e+02  5.9862028437710455e+02  6.1562929768079130e+02  5.5004449111874237e+02  5.5525138631756693e+02  4.9836287039007300e+02  5.5267205005973597e+02  1.0048562394649700e+02  1.0017698736561987e+02  2.3022067878507264e+02  4.4379436002225145e+02  9.2108757876235131e+01  3.8647801189039205e+02  4.7642101763031906e+02  4.6885434634279153e+02  3.0257313896269102e+02  6.8170991838170914e+02  6.6459070182759331e+02  0.0000000000000000e+00  6.0727251018709626e+02  2.1881686985699585e+02  6.2933291208850073e+02  5.6536047974458177e+02  5.8485556837572733e+02  4.9100115834054805e+02  3.1039902974261071e+02  9.4936953512481665e+01  2.0592671981603206e+02  2.0085768609268675e+02  1.8996513127494956e+02  3.5359054279546962e+02  3.7596971086384372e+02  3.2757062292320586e+02  2.6170506047955450e+02  1.0075600809197351e+02  2.3803161393356848e+02  2.4030515111643768e+02  3.3269195117370009e+02  2.5997430327450797e+02  4.4817772612296767e+02  5.8003542752940893e+02  3.4432059361487501e+02  3.7266633927480854e+02  4.6069544042985291e+02  4.4646581393670749e+02  1.7298353920622966e+02  3.3381076492282341e+02  4.1046338838017266e+02  6.6220955161761617e+02  4.8783829864747673e+02  4.4016253402951577e+02  9.3514729829368108e+01  5.4278617631742327e+02  5.4402184131379897e+02  6.1321546401498506e+02  3.1601528268345572e+02  3.8845341467311215e+02  4.3919891145574661e+02  2.0408329416332472e+02  8.9886896346075574e+01  5.7845316307587348e+02  9.4075252170364323e+01  4.7442352555675802e+02  5.3945897091142410e+02  8.4060280991773539e+01  0.0000000000000000e+00  8.9822595651620034e+01  8.4278973409594272e+01  3.1763099250472743e+02  5.7403548356587419e+02  3.5962312619794062e+02  9.5722873444697413e+01  4.0968248602419987e+02  0.0000000000000000e+00  9.0730811684331357e+01  4.4558066653899806e+02  1.9856302032220998e+02  2.4111676912954599e+02  8.6079139933675393e+01  9.0791129989489846e+01  0.0000000000000000e+00  5.5186599219422169e+02  5.7042640864777275e+02  6.0754126616204633e+02  8.1317590892407623e+01  1.8971113780631518e+02  0.0000000000000000e+00  6.5739262035271645e+02  6.6372243260486755e+02  6.8297679176596239e+02  0.0000000000000000e+00  2.6000210243955996e+02  0.0000000000000000e+00  5.8606661512458072e+02  8.7750988617232494e+01  5.2560213934701255e+02  4.6470288147937515e+02  2.3014368150275507e+02  9.6014907672585537e+01  0.0000000000000000e+00  9.8621516273757052e+01  0.0000000000000000e+00  0.0000000000000000e+00  2.7278829982941784e+02  0.0000000000000000e+00  0.0000000000000000e+00  0.0000000000000000e+00  0.0000000000000000e+00  0.0000000000000000e+00  0.0000000000000000e+00  0.0000000000000000e+00  0.0000000000000000e+00  0.0000000000000000e+00  0.0000000000000000e+00  0.0000000000000000e+00  0.0000000000000000e+00  0.0000000000000000e+00  0.0000000000000000e+00  0.0000000000000000e+00  0.0000000000000000e+00  0.0000000000000000e+00  0.0000000000000000e+00  0.0000000000000000e+00  0.0000000000000000e+00  0.0000000000000000e+00  0.0000000000000000e+00  0.0000000000000000e+00  0.0000000000000000e+00  0.0000000000000000e+00  0.0000000000000000e+00  2.5525583731739431e+02  4.2886104936728344e+02  3.0657366105786383e+02  3.7355688465285033e+02  </DataArray> 
</PointData> 
</Piece>
</UnstructuredGrid>
</VTKFile>