<?xml version="1.0"?>
<VTKFile type="UnstructuredGrid"  version="0.1"  >
<UnstructuredGrid>
<Piece  NumberOfPoints="3243" NumberOfCells="6301">
<Points>
<DataArray  type="Float64"  NumberOfComponents="3"  format="ascii">1 0 0  0.9987569212189223 0.04984588566069716 0  0.9950307753654014 0.09956784659581666 0  0.9888308262251285 0.1490422661761744 0  0.9801724878485438 0.1981461431993976 0  0.969077286229078 0.2467573976902936 0  0.9555728057861407 0.2947551744109042 0  0.9396926207859084 0.3420201433256687 0  0.9214762118704076 0.3884347962746947 0  0.9009688679024191 0.4338837391175581 0  0.8782215733702285 0.4782539786213182 0  0.8532908816321557 0.521435203379498 0  0.8262387743159949 0.5633200580636221 0  0.7971325072229225 0.6038044103254774 0  0.766044443118978 0.6427876096865393 0  0.7330518718298263 0.6801727377709194 0  0.6982368180860729 0.7158668492597184 0  0.6616858375968594 0.7497812029677342 0  0.6234898018587336 0.7818314824680298 0  0.58374367223479 0.8119380057158565 0  0.5425462638657594 0.8400259231507714 0  0.4999999999999999 0.8660254037844387 0  0.4562106573531631 0.8898718088114685 0  0.4112871031306117 0.9115058523116731 0  0.365341024366395 0.9308737486442042 0  0.3184866502516844 0.9479273461671317 0  0.2708404681430052 0.962624246950012 0  0.2225209339563144 0.9749279121818236 0  0.1736481776669304 0.984807753012208 0  0.1243437046474853 0.9922392066001721 0  0.07473009358642439 0.9972037971811801 0  0.02493069173807303 0.9996891820008162 0  -0.02493069173807291 0.9996891820008162 0  -0.07473009358642427 0.9972037971811801 0  -0.1243437046474852 0.9922392066001721 0  -0.1736481776669303 0.984807753012208 0  -0.2225209339563143 0.9749279121818236 0  -0.270840468143005 0.9626242469500121 0  -0.3184866502516843 0.9479273461671318 0  -0.3653410243663949 0.9308737486442044 0  -0.4112871031306114 0.9115058523116732 0  -0.4562106573531626 0.8898718088114688 0  -0.5000000000000002 0.8660254037844385 0  -0.5425462638657593 0.8400259231507715 0  -0.5837436722347896 0.8119380057158566 0  -0.6234898018587335 0.7818314824680299 0  -0.6616858375968592 0.7497812029677344 0  -0.6982368180860727 0.7158668492597186 0  -0.7330518718298263 0.6801727377709194 0  -0.7660444431189779 0.6427876096865395 0  -0.7971325072229225 0.6038044103254774 0  -0.8262387743159947 0.5633200580636223 0  -0.8532908816321556 0.5214352033794981 0  -0.8782215733702287 0.4782539786213181 0  -0.900968867902419 0.4338837391175582 0  -0.9214762118704077 0.3884347962746946 0  -0.9396926207859083 0.3420201433256689 0  -0.9555728057861406 0.2947551744109046 0  -0.9690772862290778 0.2467573976902938 0  -0.9801724878485438 0.1981461431993976 0  -0.9888308262251285 0.1490422661761747 0  -0.9950307753654014 0.09956784659581673 0  -0.9987569212189223 0.04984588566069748 0  -1 1.224646799147353e-16 0  -0.9987569212189223 -0.04984588566069723 0  -0.9950307753654014 -0.09956784659581648 0  -0.9888308262251285 -0.1490422661761745 0  -0.9801724878485439 -0.1981461431993974 0  -0.969077286229078 -0.2467573976902936 0  -0.9555728057861408 -0.2947551744109039 0  -0.9396926207859084 -0.3420201433256687 0  -0.9214762118704076 -0.3884347962746948 0  -0.9009688679024191 -0.433883739117558 0  -0.8782215733702288 -0.4782539786213179 0  -0.8532908816321557 -0.5214352033794979 0  -0.8262387743159949 -0.5633200580636221 0  -0.7971325072229226 -0.6038044103254772 0  -0.766044443118978 -0.6427876096865393 0  -0.7330518718298266 -0.6801727377709191 0  -0.6982368180860729 -0.7158668492597183 0  -0.6616858375968597 -0.749781202967734 0  -0.6234898018587337 -0.7818314824680297 0  -0.5837436722347905 -0.8119380057158559 0  -0.5425462638657592 -0.8400259231507715 0  -0.4999999999999996 -0.8660254037844388 0  -0.4562106573531632 -0.8898718088114684 0  -0.4112871031306116 -0.9115058523116731 0  -0.3653410243663957 -0.930873748644204 0  -0.318486650251685 -0.9479273461671316 0  -0.2708404681430046 -0.9626242469500123 0  -0.2225209339563146 -0.9749279121818236 0  -0.1736481776669303 -0.984807753012208 0  -0.1243437046474858 -0.992239206600172 0  -0.07473009358642473 -0.9972037971811801 0  -0.02493069173807316 -0.9996891820008162 0  0.02493069173807279 -0.9996891820008162 0  0.07473009358642436 -0.9972037971811801 0  0.1243437046474846 -0.9922392066001722 0  0.17364817766693 -0.9848077530122081 0  0.2225209339563142 -0.9749279121818236 0  0.2708404681430051 -0.962624246950012 0  0.3184866502516846 -0.9479273461671317 0  0.3653410243663945 -0.9308737486442045 0  0.4112871031306113 -0.9115058523116732 0  0.4562106573531629 -0.8898718088114687 0  0.5000000000000001 -0.8660254037844386 0  0.5425462638657597 -0.8400259231507713 0  0.5837436722347895 -0.8119380057158567 0  0.6234898018587334 -0.7818314824680299 0  0.6616858375968587 -0.7497812029677348 0  0.698236818086073 -0.7158668492597183 0  0.7330518718298266 -0.6801727377709191 0  0.7660444431189778 -0.6427876096865396 0  0.7971325072229224 -0.6038044103254775 0  0.8262387743159945 -0.5633200580636227 0  0.8532908816321558 -0.5214352033794979 0  0.8782215733702283 -0.4782539786213186 0  0.900968867902419 -0.4338837391175583 0  0.9214762118704076 -0.3884347962746947 0  0.9396926207859081 -0.3420201433256694 0  0.9555728057861406 -0.2947551744109047 0  0.9690772862290778 -0.246757397690294 0  0.9801724878485438 -0.1981461431993977 0  0.9888308262251285 -0.1490422661761744 0  0.9950307753654013 -0.09956784659581729 0  0.9987569212189223 -0.0498458856606976 0  0 -1.110223024625157e-16 0  -0.4060952245631048 0.2919625833433866 0  0.07454430279913359 0.4945691341012836 0  -0.3214937308814528 -0.3831413087744865 0  0.4060952245631052 -0.2919625833433861 0  0.4673719130775488 0.1970137823441975 0  0.07065575168974669 -0.5638195129952732 0  -0.5876518183134565 -0.07364232701738999 0  -0.2541979963622033 0.6030288969972762 0  0.4076207702370422 0.5262112245891383 0  0.6613130009878312 -0.07561785461588438 0  -0.2877924882763663 -0.08496671912316978 0  0.1122523041955583 -0.2722698749696852 0  -0.2136446684141768 -0.6649681138278456 0  0.3711239967993034 -0.5916870927688695 0  -0.6811618247539664 0.2288582017624023 0  -0.6036259983084502 -0.3898630043774365 0  -0.1519565356019055 0.3604834946258824 0  0.2223728889826192 0.7073349201016491 0  -0.5313477807263849 0.5182619981567066 0  0.6605018953341746 -0.3386195639300833 0  0.2873299503248539 -0.02875169806262802 0  0.1874625299482133 0.2355619893962034 0  0.7230148253408941 0.1735722145348512 0  -0.4549609197086589 -0.5957654959402137 0  -0.03463157487303079 0.7407085179683447 0  0.6291441987588993 0.406976916748466 0  -0.2289589159049669 0.1405285933300958 0  -0.08807616397075169 -0.392430403720013 0  0.205296612242771 -0.7458798537797463 0  -0.7547001834030465 -0.2123397074488059 0  -0.7837591992851975 0.01954573416024249 0  -0.01646532341657923 -0.7690653170628658 0  -0.4352401762958623 0.07855348178493107 0  0.2338185418859718 -0.4383564083763345 0  -0.4660907991281192 -0.2382969082541435 0  -0.07353959542582791 -0.189593951033018 0  -0.01634378184019994 0.2053797911459911 0  0.5767924862461576 -0.5348822709432305 0  0.4676013569319232 -0.1058100506567658 0  -0.4227737526629002 0.6918385751529503 0  0.3451218286438238 0.3448460222806342 0  -0.2417662837479932 0.783787041456639 0  0.7894336726564478 -0.2075150882455891 0  0.429437930868693 0.7027440193188219 0  0.5795530210908955 0.5802417886451888 0  0.818250434369694 0.01775696154863614 0  -0.09722442279153222 0.5263769109750763 0  -0.3089301091725765 0.4371354806480824 0  -0.7090524339547675 0.409371613613344 0  0.2438561876582929 0.4811936910778122 0  0.5432018434834983 0.04565923381603147 0  -0.3666591398357442 -0.7431965258712754 0  -0.5618207183878967 0.3397086085210991 0  -0.6185121444690291 -0.5572316488307958 0  -0.5977938369819751 0.08892586939414393 0  -0.2319369917805521 -0.2422716374480734 0  -0.2088517301748016 -0.8202123616008853 0  0.3674245052370875 -0.7539747860075445 0  0.5048967506413504 -0.6753011662259081 0  0.06820072641026245 0.3376857440261995 0  0.5825625451404475 -0.2068770910951368 0  -0.2093208387955752 -0.5017643152297908 0  0.4421364691493548 -0.4480702397503655 0  -0.06721994241050155 -0.6264082819342098 0  0.2198456810463068 -0.5890117939449101 0  0.1072482179998102 0.8270400658162729 0  0.101706945347264 0.1114338704246025 0  -0.826215081689274 0.1701570551503884 0  -0.7559016678791552 -0.3875281735895096 0  -0.1403081793782837 -0.05463656608767534 0  -0.4381435912761569 -0.0904638073416138 0  0.2648585596196462 -0.1972910845697012 0  0.1356675309518404 -0.09429826762197367 0  0.08800287638571841 -0.4175523043917539 0  0.772184265774069 0.3484228092971817 0  0.4820585818083429 0.3991084987153591 0  -0.6096551968804708 -0.2170872236035365 0  0.3980609174667186 0.06761537960865138 0  0.2429849976623634 0.1055167835565284 0  -0.4627258547488082 -0.3795349891758816 0  -0.5092671392521492 0.1973579212248526 0  0.7098874552164247 -0.4756664543534329 0  -0.3872144293666887 0.5549387157286028 0  0.007479912798405555 0.612104857903693 0  -0.1106088318060157 0.07657058882501411 0  -0.08645511997809778 0.8639888077054165 0  0.8546013271693483 0.1469869706377941 0  -0.7957961633846122 0.3035577340122536 0  -0.6516041046685823 0.5750440342764058 0  0.7950924905082843 -0.342029907248517 0  -0.8517730591837042 -0.1067410126442437 0  0.3279509223104274 0.7972989472436024 0  0.5615550327388615 0.2917503018191212 0  0.1039924397968217 -0.8490717333777242 0  -0.274352362125688 0.3088893272147279 0  -0.3199998995660726 -0.5804912223174621 0  0.3315659806484027 0.2091724322371269 0  -0.1325896474512148 0.6530104098458814 0  0.1376376998738423 0.6084703306290548 0  0.3241561268038429 0.6261409266958099 0  0.6961548279354922 0.5198857607104763 0  0.5313120496018447 -0.3261229251073059 0  -0.4541049825189052 0.4132022653064708 0  -0.544101644468135 0.646985081491446 0  0.5933756450024116 0.1654697377387106 0  0.6936465783424133 0.04861005800032081 0  0.1936093818855595 0.3634402114305412 0  -0.4937059030800814 
[...]
<PointData  Scalars="velocity-6"> 
<DataArray  type="Float64"  Name="velocity-6"  format="ascii">0.0000000000000000e+00  0.0000000000000000e+00  0.0000000000000000e+00  0.0000000000000000e+00  0.0000000000000000e+00  0.0000000000000000e+00  0.0000000000000000e+00  0.0000000000000000e+00  0.0000000000000000e+00  0.0000000000000000e+00  0.0000000000000000e+00  0.0000000000000000e+00  0.0000000000000000e+00  0.0000000000000000e+00  0.0000000000000000e+00  0.0000000000000000e+00  0.0000000000000000e+00  0.0000000000000000e+00  0.0000000000000000e+00  0.0000000000000000e+00  0.0000000000000000e+00  0.0000000000000000e+00  0.0000000000000000e+00  0.0000000000000000e+00  0.0000000000000000e+00  0.0000000000000000e+00  0.0000000000000000e+00  0.0000000000000000e+00  0.0000000000000000e+00  0.0000000000000000e+00  0.0000000000000000e+00  0.0000000000000000e+00  0.0000000000000000e+00  0.0000000000000000e+00  0.0000000000000000e+00  0.0000000000000000e+00  0.0000000000000000e+00  0.0000000000000000e+00  0.0000000000000000e+00  0.0000000000000000e+00  0.0000000000000000e+00  0.0000000000000000e+00  0.0000000000000000e+00  0.0000000000000000e+00  0.0000000000000000e+00  0.0000000000000000e+00  0.0000000000000000e+00  0.0000000000000000e+00  0.0000000000000000e+00  0.0000000000000000e+00  0.0000000000000000e+00  0.0000000000000000e+00  0.0000000000000000e+00  0.0000000000000000e+00  0.0000000000000000e+00  0.0000000000000000e+00  0.0000000000000000e+00  0.0000000000000000e+00  0.0000000000000000e+00  0.0000000000000000e+00  0.0000000000000000e+00  0.0000000000000000e+00  0.0000000000000000e+00  0.0000000000000000e+00  0.0000000000000000e+00  0.0000000000000000e+00  0.0000000000000000e+00  0.0000000000000000e+00  0.0000000000000000e+00  0.0000000000000000e+00  0.0000000000000000e+00  0.0000000000000000e+00  0.0000000000000000e+00  0.0000000000000000e+00  0.0000000000000000e+00  0.0000000000000000e+00  0.0000000000000000e+00  0.0000000000000000e+00  0.0000000000000000e+00  0.0000000000000000e+00  0.0000000000000000e+00  0.0000000000000000e+00  0.0000000000000000e+00  0.0000000000000000e+00  0.0000000000000000e+00  0.0000000000000000e+00  0.0000000000000000e+00  0.0000000000000000e+00  0.0000000000000000e+00  0.0000000000000000e+00  0.0000000000000000e+00  0.0000000000000000e+00  0.0000000000000000e+00  0.0000000000000000e+00  0.0000000000000000e+00  0.0000000000000000e+00  0.0000000000000000e+00  0.0000000000000000e+00  0.0000000000000000e+00  0.0000000000000000e+00  0.0000000000000000e+00  0.0000000000000000e+00  0.0000000000000000e+00  0.0000000000000000e+00  0.0000000000000000e+00  0.0000000000000000e+00  0.0000000000000000e+00  0.0000000000000000e+00  0.0000000000000000e+00  0.0000000000000000e+00  0.0000000000000000e+00  0.0000000000000000e+00  0.0000000000000000e+00  0.0000000000000000e+00  0.0000000000000000e+00  0.0000000000000000e+00  0.0000000000000000e+00  0.0000000000000000e+00  0.0000000000000000e+00  0.0000000000000000e+00  0.0000000000000000e+00  0.0000000000000000e+00  0.0000000000000000e+00  0.0000000000000000e+00  0.0000000000000000e+00  0.0000000000000000e+00  3.7439602174324155e-01  2.7905025901709729e-01  2.7906994739484664e-01  2.7910271384158147e-01  2.7909562404277422e-01  2.7641044293812167e-01  2.5135540946118179e-01  2.4062233713435718e-01  2.1126403808331262e-01  2.0568688608121385e-01  2.0569447160608553e-01  3.4006629438090907e-01  3.4139210958476485e-01  1.8872307857236562e-01  1.8870505699694781e-01  1.7797538318862927e-01  1.7787718014164502e-01  3.1616169635918534e-01  1.6536288524167397e-01  1.6501102007209442e-01  1.6491210428486261e-01  3.4246459293159953e-01  3.3992830858554668e-01  1.6423060579987148e-01  1.6080720016204009e-01  1.6538651300691004e-01  1.6098737919051515e-01  3.4685125584610438e-01  3.1278510236807738e-01  1.4710428760922784e-01  1.4103688483453861e-01  1.4099222341554343e-01  1.4951293084864681e-01  2.9993760475144454e-01  2.8038364098512281e-01  2.6989641556849070e-01  3.5873352184939650e-01  3.5820334794677755e-01  1.3949825552250664e-01  2.8681857618265633e-01  1.2514254207349235e-01  2.8369632402611455e-01  1.1939112436247012e-01  1.2186300783291157e-01  1.1730108280166128e-01  1.1934425338336500e-01  1.2046179965780890e-01  2.6522475335403112e-01  2.6519425694546039e-01  1.2022715132158814e-01  2.6350103874972403e-01  2.6118890175836695e-01  1.1411137040158212e-01  2.1027760650249117e-01  1.1187036211848443e-01  2.3518316298609357e-01  3.3163614544945985e-01  1.0323488847642918e-01  1.0789090922496450e-01  1.0513492251647136e-01  3.2924796981954546e-01  2.2888859548336554e-01  2.6178007572479545e-01  2.2347260092430501e-01  2.2317547219973968e-01  2.2390267929628524e-01  1.1094273274347687e-01  3.6575895065731195e-01  1.0497005298950889e-01  1.0125577374554526e-01  3.6570219238671769e-01  2.9813386676682718e-01  3.3279306396625863e-01  3.6409493867837317e-01  3.0502995823490286e-01  1.0272067364096259e-01  2.2521044442753299e-01  2.1481770715438095e-01  3.1232041162355983e-01  3.4761859044856291e-01  2.3794898719448299e-01  2.6080502880709105e-01  9.8139097215576093e-02  2.0010647410152976e-01  2.3170925379392543e-01  3.6751725028431659e-01  8.9246052158868355e-02  9.0063744959752029e-02  9.9815188213642950e-02  8.8851186394000400e-02  9.1149031083921875e-02  9.5661242954031528e-02  9.3254481144426374e-02  2.2191110712946685e-01  9.7585823365595223e-02  3.0950940979622915e-01  2.0710714051349738e-01  3.1584877935718392e-01  2.0535589636185195e-01  2.2617372501115279e-01  1.8520785852126523e-01  8.8974011844273559e-02  2.2633212247210541e-01  2.3087763699921243e-01  1.0380830073317455e-01  2.2991131746093260e-01  1.9033181326036558e-01  3.0985485569846211e-01  8.6789947388183658e-02  3.0683452226346242e-01  8.3868462873388089e-02  2.2639136660528736e-01  3.1669744059069127e-01  1.8102461628643565e-01  3.1369960559643262e-01  2.7632748633776533e-01  1.7654831054976769e-01  3.3295580600098179e-01  3.0948990016821781e-01  1.7575090013337066e-01  3.5355198506916846e-01  3.4613233528177917e-01  3.1542696929452996e-01  8.7175175909241828e-02  8.0482500536614487e-02  3.6226482706485480e-01  2.6391451769653840e-01  3.6197053783934890e-01  2.0208795584876990e-01  2.7253219485559937e-01  7.9275948983375269e-02  7.6885475339765169e-02  1.6378998831354274e-01  1.6004522541661714e-01  1.0247135366393696e-01  3.0740587168311201e-01  1.6928976020662295e-01  1.7451491636246841e-01  3.2329696711345041e-01  8.3304702861450655e-02  1.1590394076692373e-01  1.6980673857661330e-01  7.6844675380221286e-02  7.8220228250057589e-02  2.7747313413112557e-01  3.3647936209944412e-01  2.0732392079023584e-01  3.3718115568618001e-01  1.7516175677959350e-01  1.7446048304219369e-01  1.4193372652889272e-01  8.0084740087963888e-02  3.5389589283255407e-01  1.6199586080173078e-01  1.8296078219354062e-01  1.4966911305557618e-01  3.7042644920713058e-01  3.5417563087868070e-01  2.3784536439029513e-01  2.7083692930263908e-01  1.7158981889285205e-01  2.6981641488196639e-01  2.8045119035658866e-01  2.2716270452104154e-01  2.5918694233494022e-01  7.5968590996622162e-02  3.7042935172350139e-01  1.5249244560729264e-01  2.6564228951254637e-01  2.0980154387280600e-01  6.8095796416125870e-02  7.4518799001508415e-02  2.4735349846385279e-01  3.1571211323789855e-01  3.3408256131485137e-01  1.4803052525752261e-01  8.4527389544139686e-02  6.4942054798894380e-02  6.7425368553347784e-02  9.3327447587062073e-02  6.9837612646130129e-02  7.1561763329843001e-02  2.5364462487140105e-01  3.1483814996965348e-01  6.8428543875624928e-02  1.5825410751063654e-01  6.8268153890865796e-02  6.3791236762809192e-02  6.8252716245573525e-02  6.3391473264555021e-02  2.3470476896990972e-01  2.1040464672924089e-01  2.5394285589370957e-01  1.7530112002040893e-01  6.2379829860287637e-02  1.5158479853473061e-01  6.1551970852999162e-02  6.4793534171549955e-02  1.6919151610621391e-01  1.4481867978828372e-01  6.5811504416912969e-02  1.5286644675296376e-01  6.2257611307249841e-02  6.3237586878415200e-02  3.7123279936655373e-01  6.0286068418847316e-02  6.3074542065596179e-02  3.0124212886337370e-01  3.5452104945086854e-01  2.2688559205892017e-01  6.6903355693320288e-02  3.0632948556900796e-01  2.8821686776443922e-01  3.3223486376467937e-01  3.5179357188979526e-01  1.3649441690890288e-01  2.2437091516018270e-01  2.9120655769010922e-01  2.7674493988600340e-01  2.9598561894160791e-01  2.6777931097543478e-01  2.3723827109374748e-01  2.3772919657368641e-01  3.3395208479400662e-01  3.0879877727031796e-01  2.8712225026609312e-01  5.8152393719492497e-02  1.3484744580741870e-01  1.7256452213630727e-01  1.4549787630527886e-01  3.0613926176897499e-01  2.8260517858120759e-01  2.8681547957352344e-01  1.3125869012715688e-01  2.6653483258534777e-01  2.2828967958266017e-01  6.0174897858883969e-02  6.4621722425415473e-02  5.9436730680371343e-02  1.4456705440547721e-01  5.8720637019880603e-02  3.3623773640849408e-01  1.4909390211563686e-01  2.2602833013514784e-01  2.5480444880369757e-01  1.1721476806277092e-01  2.0886430349241150e-01  3.7153643629390437e-01  1.1131649568711442e-01  5.4244071553619252e-02  3.5169682260200047e-01  2.2159201762528655e-01  5.8229171362945711e-02  5.8238159537280128e-02  2.7049472165649968e-01  2.4476807517321625e-01  2.2693958636416475e-01  5.6710123443092939e-02  1.5011893427929909e-01  2.2136047651920635e-01  1.8595071286865031e-01  1.9282984490319210e-01  1.2739273306393090e-01  3.3802512383858691e-01  2.5509126980558255e-01  1.8577810438364020e-01  3.2755695135768714e-01  3.6128146170324205e-01  1.1982357439813150e-01  5.6450659998593222e-02  2.8214746088335907e-01  2.9253374913303898e-01  2.4503969760902022e-01  1.5113834324633021e-01  1.2967906206031476e-01  7.8737912679535477e-02  1.8787417225292566e-01  3.0371541681119341e-01  3.0717410961395403e-01  3.4661680706488118e-01  3.3213738596597370e-01  1.1445653347342921e-01  2.0326961370374941e-01  1.2283079198614230e-01  1.4851564204294315e-01  3.3952729664397863e-01  1.5305720108631807e-01  5.5696424899176838e-02  1.4316611617612182e-01  5.3541314483856156e-02  3.0709919997570290e-01  1.7528948839571476e-01  7.2360883969059736e-02  1.2143221826027092e-01  2.0621687126190014e-01  2.0215178327261335e-01  2.3982513812610842e-01  5.5154060071466220e-02  1.4082633691727897e-01  3.2816702826418448e-01  1.1638686674626944e-01  5.1427989758358113e-02  5.0265237784667634e-02  1.7786415788786455e-01  2.4296107568986614e-01  2.0182812143636969e-01  1.8971212162969486e-01  2.4059044644182620e-01  2.0581506292941149e-01  2.8274975092452459e-01  2.2399992415928796e-01  5.5081292829145860e-02  3.5488946983554398e-01  3.7220143770311997e-01  3.6525419704742423e-01  3.5530456939789407e-01  3.2150172636336738e-01  2.9479260915292166e-01  2.7159206708576361e-01  1.2843902409918903e-01  2.5195660278087662e-01  4.9286379624845285e-02  5.3747477744414067e-02  1.3744937762949869e-01  7.6462932723951174e-02  3.6463783855152637e-01  5.2086677750834511e-02  1.8429684796616383e-01  2.0265990171743389e-01  2.5575233376541689e-01  2.1524909687353688e-01  3.2509117556507655e-01  5.5766921955472941e-02  1.3402194105768023e-01  2.8891661729113016e-01  3.3677065448626675e-01  2.0583882936913589e-01  5.2372229833322542e-02  4.9951317485165347e-02  1.3313154766710483e-01  2.4436977363727491e-01  1.7652793694023985e-01  1.2373139209949803e-01  1.3046760084966177e-01  3.1050180244298681e-01  5.0341027287147525e-02  7.1119824879467594e-02  2.3545265229957979e-01  1.4596150078707568e-01  1.3715976573459399e-01  1.3666595584737079e-01  5.2632971021601686e-02  3.4489502867805610e-01  2.9333608014276696e-01  1.9421814843518159e-01  1.4608779091333449e-01  2.5782755466636287e-01  3.1154972330056452e-01  1.1146031846440084e-01  4.9475995759536005e-02  2.5868808753458289e-01  4.7016030569531769e-02  3.6046982098019248e-01  5.0120091989911714e-02  2.5458214576964106e-01  2.6147495680234423e-01  2.0382442816697482e-01  2.9663527765543574e-01  1.8134440253145198e-01  1.2639949350954272e-01  4.7277837085026725e-02  2.6357575841771730e-01  1.9437505472540564e-01  2.5848882556539016e-01  3.5393222246008677e-01  1.1264435789495358e-01  2.1800301337293404e-01  1.4383424270693840e-01  1.2949947524094202e-01  3.0231447823048296e-01  2.6218489421159646e-01  4.8578845725279179e-02  3.3232995251192499e-01  3.0352787346745891e-01  3.1813423383857037e-01  2.3606572979870524e-01  3.3505256108857029e-01  4.9868780223939028e-02  1.2409727738515916e-01  1.7098876935958865e-01  1.0719121898084878e-01  1.0998979185433876e-01  1.9277273900610395e-01  1.1441146003561142e-01  2.1823470824041422e-01  2.5119267497403763e-01  5.4538272208245760e-02  3.3984263981658569e-01  1.9533070427668939e-01  1.9810380220524959e-01  1.0549222671959924e-01  1.7632094656564187e-01  1.2562197655345150e-01  2.5330126852236229e-01  1.9068357817451972e-01  2.1776788828131338e-01  2.9549693924985615e-01  1.0271623879921263e-01  3.5891221060451040e-01  3.6422211792618203e-01  3.7265558966349005e-01  4.5983960769924982e-02  6.9911292611464962e-02  4.8129911827997557e-02  9.7606427064835258e-02  2.5397057232769005e-01  1.7473177228153697e-01  2.3581325186460267e-01  2.4973133953261814e-01  4.6040966272290137e-02  2.9368061304997778e-01  3.2621070831561993e-01  2.8689746039682956e-01  1.7261961353998279e-01  1.0169804980557783e-01  4.3974930205861733e-02  5.5354448593328415e-02  4.7565873581463892e-02  1.9550500738776955e-01  2.9688995815245978e-01  3.4884208607631734e-01  4.6069090713617734e-02  1.9774109003377777e-01  1.5252634262400480e-01  4.6087953296916534e-02  2.3881671288917464e-01  2.5805522994821284e-01  1.9237869183941755e-01  1.1401303863097056e-01  1.6739068815654046e-01  3.7281992056195135e-01  1.1599038376097774e-01  2.1011553593574919e-01  1.7112480926101190e-01  1.7755830210902671e-01  1.2930124661414213e-01  4.3569756366799939e-02  1.5792271582833706e-01  3.1260078597105967e-01  2.8832165205695276e-01  3.1950202795667609e-01  1.0794958931603349e-01  3.5296187731292827e-01  2.0793037900113645e-01  4.5591653473928941e-02  2.3669457185294149e-01  3.2588936117724743e-01  2.8817860052997013e-01  4.1037754779427553e-02  2.9015654680892622e-01  1.5790009558494661e-01  1.6257902966656579e-01  4.5921941043056989e-02  3.2993480201595377e-01  2.0383857426294996e-01  2.9256172417370274e-01  3.2235780938782610e-01  3.2668434824079501e-01  1.7884477860944126e-01  4.3457536285728883e-02  1.0330551305857140e-01  4.4909619753906324e-02  2.0807443031018755e-01  3.3258332663770662e-01  1.1138260569126489e-01  4.3639010719782420e-02  2.4561233027870641e-01  4.1137215001604430e-02  1.7175569627484197e-01  3.4867159769802469e-01  3.6939148412821499e-01  3.5270495303249888e-01  2.9541481971402567e-01  3.9739510990925979e-02  4.0766301584371258e-02  3.2859650548957192e-01  3.2571789088495151e-01  3.4826547515671991e-01  2.5412078140995448e-01  1.3665342230762706e-01  9.8867112604641233e-02  1.1943143793948401e-01  1.0057914729347271e-01  7.0684503866454515e-02  2.2719450041890363e-01  3.2576905352260166e-01  1.7725856516806812e-01  3.5183771453974466e-01  2.9331968671667485e-01  3.2814868186390483e-01  3.1622958969443232e-01  3.0065931528503309e-01  3.0147843782696437e-01  9.9953931229825446e-02  3.8594615265527536e-02  3.6624905812127750e-01  3.6139852306941939e-01  3.9433422385481760e-02  1.4750089618549445e-01  3.4773616362361992e-01  3.8319555939225897e-02  2.8205328104678773e-01  1.9656699406339312e-01  4.4254544558267446e-02  2.3757942411803989e-01  4.0397293045306717e-02  2.5884247417402728e-01  1.9620784890441137e-01  4.2275744834283459e-02  3.7032912319006572e-01  1.0348175353423809e-01  1.1423664663104001e-01  1.0938463570483022e-01  2.7869143032574484e-01  2.5648965416725700e-01  2.4013086269765080e-01  9.4048699214625983e-02  3.3803201731364624e-01  3.2064961222719973e-01  2.5964836268583752e-01  1.5304289272717700e-01  3.0523968601043744e-01  2.3306914920072216e-01  1.3698330385254895e-01  2.3841966880999182e-01  1.0869840499053733e-01  3.8298972137104585e-02  1.1386580092971321e-01  4.0809009806411937e-02  3.9156578642466598e-02  2.8744074056321933e-01  2.6300748222283926e-01  2.3880701522316081e-01  2.7100655887347580e-01  2.1892997564818295e-01  3.2362018142688181e-01  2.8838883431771556e-01  2.9033743066415885e-01  3.4311294654107172e-01  1.0128740455143362e-01  1.7164595524650342e-01  3.5282918977868011e-01  3.2588876578280662e-01  1.6265869813060999e-01  1.1109592287565999e-01  3.5454739642630601e-01  3.6319670266043630e-01  2.8976795724990734e-01  1.0919878626870752e-01  8.7512944322795064e-02  4.1253944891232040e-02  4.1064392160227413e-02  3.0261519493329869e-01  2.1451978369413904e-01  2.2356448968034456e-01  1.3941865058250000e-01  2.5446893094546841e-01  3.1790375019096406e-01  9.0664254579975387e-02  1.6370110771100785e-01  3.7412500978553510e-02  1.9253468365724108e-01  3.2000665214111007e-01  5.6417366086178096e-02  1.6041514050424632e-01  3.5425898674415854e-02  3.8274326411224857e-02  3.4179426088513271e-01  2.8454649005214366e-01  3.4832042783801731e-01  1.1715320564171319e-01  1.0352187679160212e-01  1.0587122919414535e-01  3.2273154094181039e-01  3.0252503304763168e-01  2.6973730876430468e-01  1.2466340383341853e-01  3.6223380665101536e-02  3.5064225731652576e-02  1.4645065643803515e-01  1.8333947269186129e-01  2.8051726583707653e-01  2.0193443979185285e-01  1.7204569356528243e-01  1.4464164965530923e-01  1.3883583529109983e-01  1.5963287866227355e-01  1.3630138663647967e-01  1.3360890184848223e-01  3.5861514909939651e-01  4.0686550645036998e-02  8.2421514345502780e-02  2.9135914035275967e-01  3.3361320956039225e-01  3.1105817088451104e-01  1.5550149956234952e-01  1.4367734856650219e-01  6.9994206577341705e-02  1.2235227905276981e-01  1.9725987446512874e-01  2.4960618421234329e-01  1.2052871675339887e-01  9.4954033859297127e-02  2.3095143329679244e-01  3.6922569018755108e-01  8.3944224966076439e-02  1.7510635351507645e-01  8.4792804418628367e-02  3.7545028896316578e-02  8.8509544993851857e-02  2.4743204152730006e-01  1.4189196994535910e-01  1.4829097042873640e-01  3.9041171790904050e-02  2.9629924376655997e-01  1.7288496935109385e-01  1.8765317881209159e-01  2.5649750574672764e-01  2.5851058381711745e-01  2.9244857045017009e-01  1.4283157181952988e-01  9.3047276122079914e-02  1.0029737459438390e-01  1.7944267429887181e-01  1.5500681542908967e-01  2.0674541970468469e-01  3.4640118679075060e-01  2.5437474816222888e-01  1.8692616671542814e-01  1.5585714731487110e-01  1.9256329160633079e-01  2.0378156643569206e-01  1.0093924373632357e-01  1.0393097666914154e-01  1.4997870360342477e-01  1.9082504453316060e-01  3.1563809564414774e-01  2.2793590522316795e-01  2.1244144576104596e-01  9.8216305609897331e-02  2.8719735024739579e-01  3.1947001165583366e-01  2.7590856660509216e-01  2.7521639368416950e-01  2.5093460983081622e-01  3.0857209252278572e-01  1.7780764628829418e-01  1.4575596091357992e-01  2.0023639390781978e-01  3.4516126013840208e-02  3.1275377646459973e-01  3.4950572234437746e-02  1.8081913465997942e-01  2.7789362946450874e-01  7.6946339914663500e-02  1.3802141182631847e-01  1.9768866140149094e-01  1.4554229298312388e-01  9.6895061234236135e-02  3.4372570713551909e-01  3.5532861692756218e-01  2.6568163672785755e-01  7.9570415537621564e-02  3.4367174750363610e-01  3.5529954699361453e-02  8.2635713550648374e-02  3.6586511111097182e-02  7.8992312746783852e-02  8.3991327843428776e-02  1.4288520628804927e-01  9.1149470487536743e-02  8.6300348424875772e-02  1.3887779340198680e-01  3.6641371128584194e-01  3.5365079925329210e-02  1.4132713845457029e-01  2.1301500685857730e-01  3.4053215009174478e-02  3.0219045592610544e-01  2.7425512050948281e-01  8.4539010418270763e-02  1.9575000892170644e-01  3.2630646904995085e-02  8.1470264736135251e-02  1.5059650098647018e-01  3.6115964517741317e-01  3.5778911485283366e-01  1.3378736555428991e-01  2.3353773310726136e-01  2.1600257893214728e-01  3.6798367084215905e-01  3.6520179195448438e-01  3.6109135310099039e-01  2.60722