<?xml version="1.0"?>
<VTKFile type="UnstructuredGrid"  version="0.1"  >
<UnstructuredGrid>
<Piece  NumberOfPoints="387" NumberOfCells="708">
<Points>
<DataArray  type="Float64"  NumberOfComponents="3"  format="ascii">0 3 0  0 -3 0  6 -3 0  6 3 0  3 -3 0  6 0 0  3 3 0  0 0 0  3 0 0  0 -1.5 0  1.5 -3 0  1.5 3 0  0 1.5 0  6 -1.5 0  4.5 -3 0  6 1.5 0  4.5 3 0  4.25 -1.25 0  1.75 1.25 0  2.25 -1.5 0  4.5 0.75 0  1.541666666666667 -0.2083333333333333 0  3.219827586206896 1.521551724137931 0  1.125 -1.875 0  4.875 1.875 0  0.8702651515151515 0.631628787878788 0  2.25 2.214285714285714 0  3.316176470588236 -1.904411764705882 0  5.214285714285714 -0.75 0  5.03125 -2.03125 0  0.96875 2.03125 0  4.041666666666667 -0.2083333333333333 0  0.8205128205128206 -0.9134615384615387 0  3.942582294752138 2.189194098250713 0  3.061487638533674 -0.968243819266837 0  2.192708333333333 0.4427083333333334 0  4.157850026972511 -2.182329047049442 0  2.331456616463011 -0.5285296485744057 0  3.654761904761905 0.5654761904761902 0  5.25 1.125 0  2.563673341677096 -2.280663329161452 0  5.126674107142857 0.1283482142857142 0  0.75 -3 0  0 -2.25 0  6 2.25 0  5.25 3 0  0.7680051888903191 -0.1384245958639337 0  1.617229471026718 -1.006949429867069 0  4.218940341429579 1.468686552856807 0  3.75 -3 0  2.25 -3 0  0.75 3 0  5.25 -3 0  6 -0.75 0  0 -0.75 0  0 0.75 0  2.25 3 0  6 -2.25 0  0 2.25 0  3.75 3 0  6 0.75 0  1.787573018358365 -2.279142327213878 0  3.195025188237337 2.273430909158844 0  2.528159645294386 1.151699106559287 0  1.041598427383826 1.322848427383826 0  1.520951704545454 0.4634232954545453 0  1.580357142857143 2.325892857142857 0  4.919642857142857 -1.361607142857143 0  4.54981623521892 -0.6483700862895494 0  2.99317863826574 0.6697091957925523 0  3.450169349029507 -0.4574865881858001 0  3.605016126014028 -1.323102984840902 0  2.745144658907412 1.882241931337371 0  0.4898065586600511 1.092777516238393 0  0.5 -1.875 0  1.217028489597945 -2.469323836800685 0  1.659912685567181 -1.604738056701542 0  5.4375 1.6875 0  5.34375 2.34375 0  4.52741779500503 2.384139265001677 0  3.375 -2.514804579549941 0  0.5446428571428571 -2.455357142857143 0  2.766554087216865 -1.745795909102064 0  4.525516559010988 0.1490283123570637 0  3.87554132162248 -0.8280516069565407 0  4.53622906132958 -1.76963146596888 0  0.4243951612903226 1.875 0  0.554851858345021 2.446861709948876 0  5.575604838709677 -1.875 0  5.445148141654979 -2.446861709948876 0  4.875 -2.575604838709677 0  1.440573466105381 1.721823466105381 0  2.193519495405082 1.631799415080963 0  5.472630128027442 -1.330813078900983 0  4.750126894286386 1.343813447143193 0  5.607142857142857 -0.375 0  2.625 2.607142857142857 0  0.3921763197810531 0.375 0  5.60901753622775 0.3750000000000001 0  1.125 2.613454943235572 0  3.701856738980915 1.163867513386733 0  3.736112850688509 1.696746876851408 0  3.519183195491339 0.06065128742606851 0  3.973620778217027 -1.693401606145563 0  0.8125 -1.444978632478633 0  1.256657745408029 -0.6381828923025001 0  0 -1.125 0  5.019997778514942 0.6475044429701156 0  4.125 3 0  1.285569332703024 0.8955310332120207 0  0 -0.375 0  0.4638922275641027 -0.5625 0  2.056635259780241 -0.07226025978024064 0  2.130475508371123 -1.000827820434028 0  2.677484372338113 -1.267299126394495 0  2.848680878891876 -0.4956836878192376 0  4.937901885089369 -0.3340245904575954 0  4.393563081308854 1.919544166973803 0  4.053859126323572 0.2813938488760716 0  1.181051704329518 0.1167440895674965 0  1.971354166666667 2.607142857142857 0  4.875 3 0  2.519350561152006 0.08093582719875507 0  3.139443301924015 -1.442524927271905 0  6 2.625 0  1.849169256239503 1.945480934753207 0  1.867196483071171 0.7892354369530077 0  1.192506522009051 -1.184888428863342 0  3.375 3 0  3.603234392481833 2.536866305538572 0  3.846752908916648 -2.537707634073423 0  2.014339897513945 -1.886932065281681 0  4.038392037966526 0.8363324773944992 0  4.421242701722609 -2.552534687860327 0  3.715389848650903 -2.108856956172843 0  2.985668138820625 1.127780908772207 0  0.4500794934449803 -1.173696061598557 0  3.366760888116476 0.8891914618875614 0  1.869163043700093 -0.6107175804171328 0  2.175114838273305 -2.53928723780967 0  3.014417665538299 -2.241523065744933 0  2.625 -3 0  2.819968145332426 -2.617202329573456 0  5.625 1.3125 0  5.563263538826679 0.814027077653358 0  5.625 3 0  2.550041671270923 0.7074928970804664 0  4.014583091741168 2.59891853892166 0  0.6440729668673318 1.499523832583132 0  5.219449799568244 -1.660557808485412 0  3.474012636702472 -0.9300738420779746 0  0.8125 -2.142857142857143 0  1.875 -3 0  4.945010515846405 2.554471797033147 0  2.611388969012422 -0.8478354915063726 0  3.223746055611014 0.3371683159691745 0  4.843939757110898 -0.9483610977948225 0  4.66556954816842 -2.220888354477256 0  4.125 -3 0  4.448108395110625 -0.2524000502731018 0  5.63671875 2.05078125 0  2.822484133964224 1.491327727709286 0  3.378213092764193 1.903125093887009 0  5.607142857142858 -0.9231200445788541 0  2.12639693023183 1.100450516019641 0  5.625 -3 0  0.375 3 0  0 2.625 0  6 -2.625 0  0.3931307155906299 -0.01856779822591927 0  0.7651723094668359 0.253768144801553 0  0.8549199714190221 -0.5218333744252657 0  1.421989550604507 -2.133299471886336 0  1.582611957351803 -2.615166692128227 0  4.420331038793115 1.133144382396504 0  0.375 -3 0  0 -2.625 0  5.078156723571596 1.54697017071479 0  1.877250715260938 -1.288801575378032 0  2.409169073010687 -1.916147168931784 0  1.146151077069952 -0.268000681695328 0  1.726784828652036 0.1335728643263411 0  2.745628549924675 0.3838821021397905 0  3.011490900297165 2.613625569196862 0  5.62463365164608 -4.137655439684362e-05 0  1.875 3 0  1.125 3 0  6 0.375 0  2.625 3 0  6 -1.125 0  6 -0.375 0  4.875 -3 0  6 -1.875 0  3.375 -3 0  1.125 -3 0  0 -1.875 0  0 0.375 0  0 1.125 0  0 1.875 0  6 1.125 0  6 1.875 0  4.813017731148975 0.9677363687196439 0  2.807371623148303 2.264962208227767 0  0.3692953377255688 0.7436406761680247 0  5.615625 2.615625 0  0.9395725521479794 0.9812935874921043 0  1.390920759130215 1.238984550166515 0  0.9588795022085095 1.672288500195331 0  0.87712392565124 -2.641031728267331 0  0.3665732993114588 -1.532068934251388 0  1.841944504733106 1.591700334213738 0  4.832970185136452 0.3385359233091246 0  4.169083540479082 -0.5746148619765254 0  5.281697083409333 -0.2046640461936881 0  4.072845380968044 1.784516523483641 0  1.293029195762321 -1.543079049035419 0  4.878733886054284 -1.720697370582964 0  3.609167475697567 -1.687579152754035 0  4.836981942878573 2.222259978217028 0  4.204938267037067 -0.9128589669335569 0  5.183079748175263 -1.111742407358677 0  1.22880920402559 2.273525645756405 0  1.469404041858679 2.654509729682302 0  4.566761045622856 -1.414165869120005 0  4.531680518427715 1.606803989975667 0  1.918929241273175 2.27471131819245 0  3.526908551984126 2.207147627530056 0  1.85683899811842 0.4533569963423589 0  1.173935704088662 0.4636872214645547 0  2.116602160898525 -2.207718541460878 0  4.51821874648995 -1.042568353750147 0  2.721551512787618 -0.1859357475290837 0  5.294921875 2.001953125 0  5.288671874999999 2.670703125 0  2.199940744527116 0.7756512213396931 0  4.090519467638897 1.163401080812838 0  2.298177083333333 2.670581371753247 0  2.484362362207526 -2.687319997637033 0  3.300530569898859 1.207053005217563 0  3.936078051808127 -1.362164062673065 0  5.341218841330105 0.5689885832563615 0  4.226314635599414 0.5638853401248238 0  2.524510956818563 1.635483567726497 0  0.3219546452225031 1.389066019009203 0  3.139061555368706 -0.3133905221155423 0  3.145569907612562 -0.6461828528638952 0  3.701427442033566 -0.2272880199383185 0  1.686782510365738 -1.934662341426927 0  2.427696494631844 1.944064773844184 0  3.901817839425732 1.422433381251312 0  2.356489883772755 -0.2025512972825912 0  4.820757576351118 -0.01647699434507374 0  3.064415631228375 1.809719380809516 0  4.643002705009462 2.69782572459795 0  4.31624250429496 2.728112685900672 0  1.520100694408069 -1.314302747998057 0  3.754559308601717 -0.5375020107416889 0  0.25 -2.0625 0  0.8125 -1.826636904761905 0  4.861738621091127 -0.6367294570749906 0  1.545149590740081 2.015832101819233 0  3.857113324620078 0.04127675193819436 0  0.2479605082936806 -0.9375 0  4.21293081604216 2.352874368135467 0  3.123697687162562 -2.708090473740421 0  3.415275466010259 -2.202892416689829 0  3.601103065320932 -2.727566580522146 0  1.558629964945672 -0.5289921609136927 0  3.324859026263307 -1.198136798699183 0  2.424350759683917 -1.092246517929194 0  2.746461744851735 0.9398108087856579 0  0.8882026075771248 2.364936378889839 0  0.8066140242673685 2.679750706449505 0  4.504454978490482 0.4491616076730165 0  4.26881784709759 -0.009649566552704852 0  1.3125 -2.75919801263958 0  1.120577805361368 -2.179971784090952 0  3.734048623985226 0.8602850349907256 0  3.527828882622877 1.432983527791925 0  1.959527908877504 -1.578124930685265 0  0.7602573574724077 1.220872343399509 0  0.6691217533356228 0.8531987603309893 0  1.877213035764122 -2.564340152892596 0  3.32172153715047 2.685939810104955 0  4.285565286275464 -1.569057178671076 0  4.227521511146333 -1.876903861267543 0  5.34375 1.40625 0  5.71875 1.59375 0  1.56245959534423 0.766197796710638 0  0.2458241530773257 2.4375 0  0.2794123857609179 2.138568368155198 0  5.754175846922674 -2.4375 0  5.720587614239082 -2.138568368155198 0  0.6472458227887359 2.124973059628837 0  5.124241021325378 -2.352544055105642 0  5.189172233440652 -2.675873509996353 0  5.364643151640443 -2.12768524739804 0  2.298896485720138 1.348573610321417 0  0.6008689899200503 -2.745193425346304 0  0.307092513690391 -2.651812055231556 0  0.2683745826107009 -2.363146293324415 0  0.5223214285714285 -2.165178571428571 0  0.3925308914031174 2.699891746740618 0  5.607469108596883 -2.699891746740618 0  2.138365140930822 1.917102089073091 0  1.25507379660067 1.953406658386351 0  4.135759889512124 -2.476847355718572 0  0.5330865684534913 -0.8980875812659357 0  2.548249345531056 -1.538893887888457 0  2.67686064875775
[...]
<PointData  Scalars="f_30-2"> 
<DataArray  type="Float64"  Name="f_30-2"  format="ascii">1.0000000000000000e+01  0.0000000000000000e+00  0.0000000000000000e+00  1.0000000000000000e+01  0.0000000000000000e+00  5.0001488210016314e+00  1.0000000000000000e+01  5.0001488210016314e+00  5.0001482280472471e+00  2.5001048464637137e+00  0.0000000000000000e+00  1.0000000000000000e+01  7.5001055323483898e+00  2.5001048464637137e+00  0.0000000000000000e+00  7.5001055323483898e+00  1.0000000000000000e+01  2.9167844647302852e+00  7.0834509450132135e+00  2.5001044403263077e+00  6.2501372590104713e+00  4.6529249387781606e+00  7.5360234333154557e+00  1.8750825112584089e+00  8.1250824267902502e+00  6.0528551951670080e+00  8.6905354668282619e+00  1.8260608364197675e+00  3.7501371836921686e+00  1.6146552400300536e+00  8.3854890038440715e+00  4.6529255324780747e+00  3.4776955435216714e+00  8.6487180435483939e+00  3.3863903220894840e+00  5.7379914976134705e+00  1.3628462961878518e+00  4.1192593929705144e+00  5.9426023498152354e+00  6.8751229530290088e+00  1.1989490111316721e+00  5.2140612801213280e+00  0.0000000000000000e+00  1.2500566430985200e+00  8.7500569950848242e+00  1.0000000000000000e+01  4.7694405641802664e+00  3.3218788475640162e+00  7.4479177281903128e+00  0.0000000000000000e+00  0.0000000000000000e+00  1.0000000000000000e+01  0.0000000000000000e+00  3.7501370637786993e+00  3.7501370637786993e+00  6.2501377949501862e+00  1.0000000000000000e+01  1.2500566430985200e+00  8.7500569950848242e+00  1.0000000000000000e+01  6.2501377949501862e+00  1.2014839328701792e+00  8.7891067143597592e+00  6.9196212727977144e+00  7.2048618252896039e+00  5.7725160778181861e+00  8.8765392221098054e+00  2.7307669726916193e+00  3.9195233525116215e+00  6.1163217045333154e+00  4.2376665822246444e+00  2.7949422797307304e+00  8.1371518993474332e+00  6.8214204201490993e+00  1.8750821548980485e+00  8.8450096883559259e-01  2.3255349843718505e+00  7.8125939925509114e+00  8.9063002034621270e+00  8.9736125937958935e+00  8.0869627200038963e-01  9.0777990396376151e-01  2.0904309203248479e+00  5.2485283783990324e+00  3.6200487497147611e+00  2.0507031155617352e+00  8.1250826248183792e+00  9.0781452905457396e+00  1.8750822027594609e+00  9.2193961326068219e-01  7.0735779846867908e-01  7.8697978019171426e+00  7.7197630740995056e+00  2.7820919174439300e+00  7.2398021964101877e+00  4.3751457582138906e+00  9.3452685757725984e+00  5.6251453938408540e+00  5.6251461035628694e+00  9.3557881059630379e+00  6.9399011363982108e+00  7.8280049016282032e+00  5.1012339109493174e+00  2.1777572380027221e+00  2.5918098408548653e+00  3.9365017067641936e+00  3.1251232899508916e+00  6.0793137170298959e+00  1.0000000000000000e+01  6.4926840983684091e+00  4.3751455727156081e+00  4.0626420387717079e+00  4.8797142617639597e+00  3.3320815886228501e+00  2.8879515278281862e+00  4.1740034778216284e+00  4.4434386249037230e+00  8.1993200315601502e+00  5.4691367529297690e+00  5.1947216572803994e+00  9.3452684636619860e+00  1.0000000000000000e+01  5.1350409803836170e+00  2.5958994002802744e+00  9.3750290832425343e+00  8.2425459754900725e+00  6.3155282192851274e+00  3.0253068376302568e+00  1.0000000000000000e+01  9.2281463111506952e+00  7.7052293866178112e-01  1.8551949231790252e+00  6.3940219775907039e+00  7.4581005981283111e-01  1.4853050828572574e+00  6.8797583863865581e+00  3.0439609623673785e+00  6.4821186324089668e+00  3.9822784930638324e+00  7.6789000871933366e-01  1.2641856007310441e+00  0.0000000000000000e+00  6.3802562515061767e-01  7.1876153375719714e+00  6.3568471109153526e+00  1.0000000000000000e+01  6.1792932727211216e+00  9.3315619171242670e+00  7.4993119598061382e+00  2.2324995195399135e+00  3.4500082554919191e+00  1.4286357397407392e+00  0.0000000000000000e+00  9.2574874245138652e+00  3.5870751611401341e+00  5.5620936856851158e+00  3.4195288407885718e+00  1.2985780900689403e+00  0.0000000000000000e+00  4.5794803531303865e+00  8.4180399071038465e+00  7.4856518873815086e+00  8.1719561244392889e+00  3.4615984009922691e+00  6.8342088037514195e+00  0.0000000000000000e+00  1.0000000000000000e+01  9.3750290832425343e+00  6.2502912773865527e-01  4.9692019852817291e+00  5.4230942303788785e+00  4.1304207278395619e+00  1.4445656254329722e+00  6.4141866201304376e-01  6.8886973388510091e+00  0.0000000000000000e+00  6.2502912773865527e-01  7.5783861996225008e+00  2.8521132071019437e+00  1.8065014892103424e+00  4.5534793397909672e+00  5.2227697240740403e+00  5.6399492421131683e+00  9.3560725624736705e+00  5.0000792064704260e+00  1.0000000000000000e+01  1.0000000000000000e+01  5.6251452791566603e+00  1.0000000000000000e+01  3.1251232899508916e+00  4.3751455727156081e+00  0.0000000000000000e+00  1.8750824505786579e+00  0.0000000000000000e+00  0.0000000000000000e+00  1.8750824505786579e+00  5.6251452791566603e+00  6.8751230043978442e+00  8.1250823592695536e+00  6.8751230043978442e+00  8.1250823592695536e+00  6.6130239336024896e+00  8.7749927556304197e+00  6.2395390141256559e+00  9.3594046604094832e+00  6.6356186645470041e+00  7.0650927508305426e+00  7.7872428953206319e+00  5.9830804721752606e-01  2.4466549087856753e+00  7.6529339229357873e+00  5.5643728155644920e+00  4.0424502252403451e+00  4.6590409979068204e+00  7.9742824810852921e+00  2.4283037017774740e+00  2.1322630436103984e+00  2.1874622191055453e+00  8.7038254557336234e+00  3.4787000009431521e+00  3.1472196265192944e+00  8.7892646606685467e+00  9.4242095942609918e+00  2.6431664916442763e+00  7.6781058641607132e+00  8.7912408147606129e+00  8.6786391596727182e+00  5.7557397123484995e+00  5.7729563328586089e+00  1.3205285404931550e+00  3.2625127444339159e+00  4.6902554226468043e+00  8.3366628576724953e+00  9.4511973615736604e+00  6.2928885761364715e+00  6.9391236367760953e+00  9.4509945931387929e+00  5.2115752144908711e-01  7.0118747803762957e+00  2.7298389239909917e+00  5.9484565845341733e+00  5.9399508078167864e+00  7.7259033958056706e+00  7.3152209431537125e+00  4.4778292601032055e+00  3.9231682606945038e+00  4.6213340754160477e+00  1.7756415185629890e+00  8.2401865686003983e+00  7.3708316152295490e+00  4.6625621942562452e+00  4.9726870052305951e+00  8.0162856436286152e+00  9.4963996199892389e+00  9.5468756403894215e+00  2.8096103020963001e+00  4.1043055984218091e+00  1.5625700893201608e+00  1.9556906361067994e+00  3.9389238338106769e+00  8.3597936348589226e+00  5.0689428152604075e+00  3.4376308137660803e+00  8.9215066581008262e+00  4.8653852904563677e-01  1.3285726575087975e+00  4.5407670345904982e-01  4.1184891885625534e+00  3.0032253832139753e+00  3.1797144967536473e+00  6.5664822556355551e+00  8.9416091013841328e+00  9.4662760367861143e+00  5.7487471544405224e+00  4.9840658192152807e+00  4.0135527126134818e-01  1.3667753101686773e+00  6.4339418511160229e+00  7.3884144859371137e+00  2.3698919136837850e+00  7.0349062998267131e+00  6.4221315910557912e+00  7.2613345716301625e-01  9.4765907022783082e+00  2.3850054910778202e+00  1.8719094309439250e+00  7.3438601617014836e+00  7.6563495638835040e+00  6.2771333203174073e+00  9.0625429290996244e+00  8.5643456278320880e+00  9.3754292436665410e-01  1.4357841149913140e+00  8.5416876088180551e+00  1.0791427116547212e+00  5.4023580304553576e-01  1.4539231832185786e+00  7.2477352889368802e+00  4.2469735599460434e-01  5.8034005000722799e-01  1.0614711727921773e+00  1.3914317724852823e+00  9.4998429058319473e+00  5.0020355752954693e-01  8.1952499244276993e+00  8.2557552382513233e+00  8.7196101520581171e-01  3.5033195950411877e+00  2.4352790415993026e+00  1.6372639259181279e+00  1.7768760454456241e+00  7.9683897105375276e+00  5.9076333081399763e+00  5.9929477036012653e+00  4.5016704691060632e+00  7.2718036872425174e+00  2.3796408393817052e+00  7.7684958325026150e+00  3.5367914104677967e-01  3.0227275239281286e+00  8.8943297402025863e+00  1.9258138212546934e+00  7.5807844186841082e+00  7.4635541396808565e+00  3.2239643205948338e+00  6.3956562942148203e+00  5.3561224631504825e+00  1.7084020076016360e+00  5.4706950292090823e+00  8.8861523570148027e+00  1.5306404687891193e+00  5.5980352137479246e+00  8.2652271335549816e+00  3.5020989471492801e+00  2.6900758636235578e+00  3.4329209150072232e-01  4.1855700323822518e+00  4.5349866644623988e+00  3.9183729751728045e+00  2.8126147641064385e+00  1.0207549818202784e+00  5.0987174869631051e+00  7.6824434629643390e+00  6.9817676862952736e+00  1.7193119835900688e+00  9.6726341575319168e+00  5.9544091897222424e+00  5.3126479014148256e+00  5.4901731155007001e+00  5.9376418749104216e+00  4.2751701808480300e+00  4.3909487057498370e-01  8.3761689295281894e+00  3.2945220577751633e-01  6.5626310671609422e+00  4.6910798353503189e+00  9.6821741385109821e+00  3.0369360453260641e+00  2.2737509358178398e+00  2.2737508522865744e+00  9.6777523983182494e+00  6.5626309625561898e+00  4.5855758306701837e+00  5.3256379367131714e+00  4.6730214525584728e+00  9.6722623503630683e+00  6.1794507679100246e+00  5.6554989059525109e+00  2.2826413040086084e+00  9.6851167237879423e+00  8.3912141894515972e+00  3.1781079514749186e+00  8.4610520576814139e+00  5.0704006073462518e+00  5.9132411899474455e+00  1.0123801538009263e+00  8.6714189505341235e+00  5.2942197019983350e+00  4.3648580448650209e+00  6.7316299525054557e+00  3.7416953409650300e+00  3.6979543943668887e+00  3.2821699934631439e+00  2.8953032442265125e+00  3.6525214686342360e+00  3.0303269231319021e+00  3.8224621660395024e+00  </DataArray> 
</PointData> 
</Piece>
</UnstructuredGrid>
</VTKFile>