<?xml version="1.0"?>
<VTKFile type="UnstructuredGrid"  version="0.1"  >
<UnstructuredGrid>
<Piece  NumberOfPoints="3243" NumberOfCells="6301">
<Points>
<DataArray  type="Float64"  NumberOfComponents="3"  format="ascii">1 0 0  0.9987569212189223 0.04984588566069716 0  0.9950307753654014 0.09956784659581666 0  0.9888308262251285 0.1490422661761744 0  0.9801724878485438 0.1981461431993976 0  0.969077286229078 0.2467573976902936 0  0.9555728057861407 0.2947551744109042 0  0.9396926207859084 0.3420201433256687 0  0.9214762118704076 0.3884347962746947 0  0.9009688679024191 0.4338837391175581 0  0.8782215733702285 0.4782539786213182 0  0.8532908816321557 0.521435203379498 0  0.8262387743159949 0.5633200580636221 0  0.7971325072229225 0.6038044103254774 0  0.766044443118978 0.6427876096865393 0  0.7330518718298263 0.6801727377709194 0  0.6982368180860729 0.7158668492597184 0  0.6616858375968594 0.7497812029677342 0  0.6234898018587336 0.7818314824680298 0  0.58374367223479 0.8119380057158565 0  0.5425462638657594 0.8400259231507714 0  0.4999999999999999 0.8660254037844387 0  0.4562106573531631 0.8898718088114685 0  0.4112871031306117 0.9115058523116731 0  0.365341024366395 0.9308737486442042 0  0.3184866502516844 0.9479273461671317 0  0.2708404681430052 0.962624246950012 0  0.2225209339563144 0.9749279121818236 0  0.1736481776669304 0.984807753012208 0  0.1243437046474853 0.9922392066001721 0  0.07473009358642439 0.9972037971811801 0  0.02493069173807303 0.9996891820008162 0  -0.02493069173807291 0.9996891820008162 0  -0.07473009358642427 0.9972037971811801 0  -0.1243437046474852 0.9922392066001721 0  -0.1736481776669303 0.984807753012208 0  -0.2225209339563143 0.9749279121818236 0  -0.270840468143005 0.9626242469500121 0  -0.3184866502516843 0.9479273461671318 0  -0.3653410243663949 0.9308737486442044 0  -0.4112871031306114 0.9115058523116732 0  -0.4562106573531626 0.8898718088114688 0  -0.5000000000000002 0.8660254037844385 0  -0.5425462638657593 0.8400259231507715 0  -0.5837436722347896 0.8119380057158566 0  -0.6234898018587335 0.7818314824680299 0  -0.6616858375968592 0.7497812029677344 0  -0.6982368180860727 0.7158668492597186 0  -0.7330518718298263 0.6801727377709194 0  -0.7660444431189779 0.6427876096865395 0  -0.7971325072229225 0.6038044103254774 0  -0.8262387743159947 0.5633200580636223 0  -0.8532908816321556 0.5214352033794981 0  -0.8782215733702287 0.4782539786213181 0  -0.900968867902419 0.4338837391175582 0  -0.9214762118704077 0.3884347962746946 0  -0.9396926207859083 0.3420201433256689 0  -0.9555728057861406 0.2947551744109046 0  -0.9690772862290778 0.2467573976902938 0  -0.9801724878485438 0.1981461431993976 0  -0.9888308262251285 0.1490422661761747 0  -0.9950307753654014 0.09956784659581673 0  -0.9987569212189223 0.04984588566069748 0  -1 1.224646799147353e-16 0  -0.9987569212189223 -0.04984588566069723 0  -0.9950307753654014 -0.09956784659581648 0  -0.9888308262251285 -0.1490422661761745 0  -0.9801724878485439 -0.1981461431993974 0  -0.969077286229078 -0.2467573976902936 0  -0.9555728057861408 -0.2947551744109039 0  -0.9396926207859084 -0.3420201433256687 0  -0.9214762118704076 -0.3884347962746948 0  -0.9009688679024191 -0.433883739117558 0  -0.8782215733702288 -0.4782539786213179 0  -0.8532908816321557 -0.5214352033794979 0  -0.8262387743159949 -0.5633200580636221 0  -0.7971325072229226 -0.6038044103254772 0  -0.766044443118978 -0.6427876096865393 0  -0.7330518718298266 -0.6801727377709191 0  -0.6982368180860729 -0.7158668492597183 0  -0.6616858375968597 -0.749781202967734 0  -0.6234898018587337 -0.7818314824680297 0  -0.5837436722347905 -0.8119380057158559 0  -0.5425462638657592 -0.8400259231507715 0  -0.4999999999999996 -0.8660254037844388 0  -0.4562106573531632 -0.8898718088114684 0  -0.4112871031306116 -0.9115058523116731 0  -0.3653410243663957 -0.930873748644204 0  -0.318486650251685 -0.9479273461671316 0  -0.2708404681430046 -0.9626242469500123 0  -0.2225209339563146 -0.9749279121818236 0  -0.1736481776669303 -0.984807753012208 0  -0.1243437046474858 -0.992239206600172 0  -0.07473009358642473 -0.9972037971811801 0  -0.02493069173807316 -0.9996891820008162 0  0.02493069173807279 -0.9996891820008162 0  0.07473009358642436 -0.9972037971811801 0  0.1243437046474846 -0.9922392066001722 0  0.17364817766693 -0.9848077530122081 0  0.2225209339563142 -0.9749279121818236 0  0.2708404681430051 -0.962624246950012 0  0.3184866502516846 -0.9479273461671317 0  0.3653410243663945 -0.9308737486442045 0  0.4112871031306113 -0.9115058523116732 0  0.4562106573531629 -0.8898718088114687 0  0.5000000000000001 -0.8660254037844386 0  0.5425462638657597 -0.8400259231507713 0  0.5837436722347895 -0.8119380057158567 0  0.6234898018587334 -0.7818314824680299 0  0.6616858375968587 -0.7497812029677348 0  0.698236818086073 -0.7158668492597183 0  0.7330518718298266 -0.6801727377709191 0  0.7660444431189778 -0.6427876096865396 0  0.7971325072229224 -0.6038044103254775 0  0.8262387743159945 -0.5633200580636227 0  0.8532908816321558 -0.5214352033794979 0  0.8782215733702283 -0.4782539786213186 0  0.900968867902419 -0.4338837391175583 0  0.9214762118704076 -0.3884347962746947 0  0.9396926207859081 -0.3420201433256694 0  0.9555728057861406 -0.2947551744109047 0  0.9690772862290778 -0.246757397690294 0  0.9801724878485438 -0.1981461431993977 0  0.9888308262251285 -0.1490422661761744 0  0.9950307753654013 -0.09956784659581729 0  0.9987569212189223 -0.0498458856606976 0  0 -1.110223024625157e-16 0  -0.4060952245631048 0.2919625833433866 0  0.07454430279913359 0.4945691341012836 0  -0.3214937308814528 -0.3831413087744865 0  0.4060952245631052 -0.2919625833433861 0  0.4673719130775488 0.1970137823441975 0  0.07065575168974669 -0.5638195129952732 0  -0.5876518183134565 -0.07364232701738999 0  -0.2541979963622033 0.6030288969972762 0  0.4076207702370422 0.5262112245891383 0  0.6613130009878312 -0.07561785461588438 0  -0.2877924882763663 -0.08496671912316978 0  0.1122523041955583 -0.2722698749696852 0  -0.2136446684141768 -0.6649681138278456 0  0.3711239967993034 -0.5916870927688695 0  -0.6811618247539664 0.2288582017624023 0  -0.6036259983084502 -0.3898630043774365 0  -0.1519565356019055 0.3604834946258824 0  0.2223728889826192 0.7073349201016491 0  -0.5313477807263849 0.5182619981567066 0  0.6605018953341746 -0.3386195639300833 0  0.2873299503248539 -0.02875169806262802 0  0.1874625299482133 0.2355619893962034 0  0.7230148253408941 0.1735722145348512 0  -0.4549609197086589 -0.5957654959402137 0  -0.03463157487303079 0.7407085179683447 0  0.6291441987588993 0.406976916748466 0  -0.2289589159049669 0.1405285933300958 0  -0.08807616397075169 -0.392430403720013 0  0.205296612242771 -0.7458798537797463 0  -0.7547001834030465 -0.2123397074488059 0  -0.7837591992851975 0.01954573416024249 0  -0.01646532341657923 -0.7690653170628658 0  -0.4352401762958623 0.07855348178493107 0  0.2338185418859718 -0.4383564083763345 0  -0.4660907991281192 -0.2382969082541435 0  -0.07353959542582791 -0.189593951033018 0  -0.01634378184019994 0.2053797911459911 0  0.5767924862461576 -0.5348822709432305 0  0.4676013569319232 -0.1058100506567658 0  -0.4227737526629002 0.6918385751529503 0  0.3451218286438238 0.3448460222806342 0  -0.2417662837479932 0.783787041456639 0  0.7894336726564478 -0.2075150882455891 0  0.429437930868693 0.7027440193188219 0  0.5795530210908955 0.5802417886451888 0  0.818250434369694 0.01775696154863614 0  -0.09722442279153222 0.5263769109750763 0  -0.3089301091725765 0.4371354806480824 0  -0.7090524339547675 0.409371613613344 0  0.2438561876582929 0.4811936910778122 0  0.5432018434834983 0.04565923381603147 0  -0.3666591398357442 -0.7431965258712754 0  -0.5618207183878967 0.3397086085210991 0  -0.6185121444690291 -0.5572316488307958 0  -0.5977938369819751 0.08892586939414393 0  -0.2319369917805521 -0.2422716374480734 0  -0.2088517301748016 -0.8202123616008853 0  0.3674245052370875 -0.7539747860075445 0  0.5048967506413504 -0.6753011662259081 0  0.06820072641026245 0.3376857440261995 0  0.5825625451404475 -0.2068770910951368 0  -0.2093208387955752 -0.5017643152297908 0  0.4421364691493548 -0.4480702397503655 0  -0.06721994241050155 -0.6264082819342098 0  0.2198456810463068 -0.5890117939449101 0  0.1072482179998102 0.8270400658162729 0  0.101706945347264 0.1114338704246025 0  -0.826215081689274 0.1701570551503884 0  -0.7559016678791552 -0.3875281735895096 0  -0.1403081793782837 -0.05463656608767534 0  -0.4381435912761569 -0.0904638073416138 0  0.2648585596196462 -0.1972910845697012 0  0.1356675309518404 -0.09429826762197367 0  0.08800287638571841 -0.4175523043917539 0  0.772184265774069 0.3484228092971817 0  0.4820585818083429 0.3991084987153591 0  -0.6096551968804708 -0.2170872236035365 0  0.3980609174667186 0.06761537960865138 0  0.2429849976623634 0.1055167835565284 0  -0.4627258547488082 -0.3795349891758816 0  -0.5092671392521492 0.1973579212248526 0  0.7098874552164247 -0.4756664543534329 0  -0.3872144293666887 0.5549387157286028 0  0.007479912798405555 0.612104857903693 0  -0.1106088318060157 0.07657058882501411 0  -0.08645511997809778 0.8639888077054165 0  0.8546013271693483 0.1469869706377941 0  -0.7957961633846122 0.3035577340122536 0  -0.6516041046685823 0.5750440342764058 0  0.7950924905082843 -0.342029907248517 0  -0.8517730591837042 -0.1067410126442437 0  0.3279509223104274 0.7972989472436024 0  0.5615550327388615 0.2917503018191212 0  0.1039924397968217 -0.8490717333777242 0  -0.274352362125688 0.3088893272147279 0  -0.3199998995660726 -0.5804912223174621 0  0.3315659806484027 0.2091724322371269 0  -0.1325896474512148 0.6530104098458814 0  0.1376376998738423 0.6084703306290548 0  0.3241561268038429 0.6261409266958099 0  0.6961548279354922 0.5198857607104763 0  0.5313120496018447 -0.3261229251073059 0  -0.4541049825189052 0.4132022653064708 0  -0.544101644468135 0.646985081491446 0  0.5933756450024116 0.1654697377387106 0  0.6936465783424133 0.04861005800032081 0  0.1936093818855595 0.3634402114305412 0  -0.4937059030800814 
[...]
<PointData  Scalars="velocity-2"> 
<DataArray  type="Float64"  Name="velocity-2"  format="ascii">0.0000000000000000e+00  0.0000000000000000e+00  0.0000000000000000e+00  0.0000000000000000e+00  0.0000000000000000e+00  0.0000000000000000e+00  0.0000000000000000e+00  0.0000000000000000e+00  0.0000000000000000e+00  0.0000000000000000e+00  0.0000000000000000e+00  0.0000000000000000e+00  0.0000000000000000e+00  0.0000000000000000e+00  0.0000000000000000e+00  0.0000000000000000e+00  0.0000000000000000e+00  0.0000000000000000e+00  0.0000000000000000e+00  0.0000000000000000e+00  0.0000000000000000e+00  0.0000000000000000e+00  0.0000000000000000e+00  0.0000000000000000e+00  0.0000000000000000e+00  0.0000000000000000e+00  0.0000000000000000e+00  0.0000000000000000e+00  0.0000000000000000e+00  0.0000000000000000e+00  0.0000000000000000e+00  0.0000000000000000e+00  0.0000000000000000e+00  0.0000000000000000e+00  0.0000000000000000e+00  0.0000000000000000e+00  0.0000000000000000e+00  0.0000000000000000e+00  0.0000000000000000e+00  0.0000000000000000e+00  0.0000000000000000e+00  0.0000000000000000e+00  0.0000000000000000e+00  0.0000000000000000e+00  0.0000000000000000e+00  0.0000000000000000e+00  0.0000000000000000e+00  0.0000000000000000e+00  0.0000000000000000e+00  0.0000000000000000e+00  0.0000000000000000e+00  0.0000000000000000e+00  0.0000000000000000e+00  0.0000000000000000e+00  0.0000000000000000e+00  0.0000000000000000e+00  0.0000000000000000e+00  0.0000000000000000e+00  0.0000000000000000e+00  0.0000000000000000e+00  0.0000000000000000e+00  0.0000000000000000e+00  0.0000000000000000e+00  0.0000000000000000e+00  0.0000000000000000e+00  0.0000000000000000e+00  0.0000000000000000e+00  0.0000000000000000e+00  0.0000000000000000e+00  0.0000000000000000e+00  0.0000000000000000e+00  0.0000000000000000e+00  0.0000000000000000e+00  0.0000000000000000e+00  0.0000000000000000e+00  0.0000000000000000e+00  0.0000000000000000e+00  0.0000000000000000e+00  0.0000000000000000e+00  0.0000000000000000e+00  0.0000000000000000e+00  0.0000000000000000e+00  0.0000000000000000e+00  0.0000000000000000e+00  0.0000000000000000e+00  0.0000000000000000e+00  0.0000000000000000e+00  0.0000000000000000e+00  0.0000000000000000e+00  0.0000000000000000e+00  0.0000000000000000e+00  0.0000000000000000e+00  0.0000000000000000e+00  0.0000000000000000e+00  0.0000000000000000e+00  0.0000000000000000e+00  0.0000000000000000e+00  0.0000000000000000e+00  0.0000000000000000e+00  0.0000000000000000e+00  0.0000000000000000e+00  0.0000000000000000e+00  0.0000000000000000e+00  0.0000000000000000e+00  0.0000000000000000e+00  0.0000000000000000e+00  0.0000000000000000e+00  0.0000000000000000e+00  0.0000000000000000e+00  0.0000000000000000e+00  0.0000000000000000e+00  0.0000000000000000e+00  0.0000000000000000e+00  0.0000000000000000e+00  0.0000000000000000e+00  0.0000000000000000e+00  0.0000000000000000e+00  0.0000000000000000e+00  0.0000000000000000e+00  0.0000000000000000e+00  0.0000000000000000e+00  0.0000000000000000e+00  0.0000000000000000e+00  0.0000000000000000e+00  0.0000000000000000e+00  0.0000000000000000e+00  1.5116667276938527e+00  1.1555485913744226e+00  1.1543472225756790e+00  1.1536164738982344e+00  1.1543156303337834e+00  1.1436359885627496e+00  1.0521245820466905e+00  1.0118646615089997e+00  9.0164211277229978e-01  8.8140648182602499e-01  8.7906661597941582e-01  1.3855264444078486e+00  1.3893207010972748e+00  8.1634731974003638e-01  8.1619050705260376e-01  7.7492929178682479e-01  7.7470768398581580e-01  1.2952760272988117e+00  7.2708898791799448e-01  7.2638001193819801e-01  7.2421151772229941e-01  1.3916700688198358e+00  1.3830894843373929e+00  7.2495750663560965e-01  7.0860031495794895e-01  7.2924684094924586e-01  7.0978225665756245e-01  1.4102516143885611e+00  1.2822105882332937e+00  6.5930878877801091e-01  6.3560801025410141e-01  6.3406296685189967e-01  6.6557416908557165e-01  1.2332660714137595e+00  1.1604973703873069e+00  1.1216311250625783e+00  1.4532744897594800e+00  1.4517312845578338e+00  6.2843403581183177e-01  1.1836756651529858e+00  5.7295834419927305e-01  1.1699518203984067e+00  5.5021525764660539e-01  5.5938697651216618e-01  5.3905204661852324e-01  5.4728558021854468e-01  5.5267492060883661e-01  1.1041555360714210e+00  1.1026141216278280e+00  5.4980219230737382e-01  1.0977739842085299e+00  1.0892448814306599e+00  5.2690940923937979e-01  8.9709437993220154e-01  5.1807424087862730e-01  9.9083966324152617e-01  1.3482313447923824e+00  4.8012976878630559e-01  5.0008727314827317e-01  4.8759072778970924e-01  1.3408886310937767e+00  9.7039596734696776e-01  1.0888865093216276e+00  9.4605183806661497e-01  9.4562891304363728e-01  9.5009261513803034e-01  5.1439941332320338e-01  1.4794036114880340e+00  4.8622186993410427e-01  4.7079208130702527e-01  1.4774713985997772e+00  1.2252934310943076e+00  1.3556550165599475e+00  1.4728202008434421e+00  1.2503354250899306e+00  4.7751097366198997e-01  9.5285683080674421e-01  9.1161310370338999e-01  1.2788218596070116e+00  1.4111468986382876e+00  9.9975957426340534e-01  1.0858810920575919e+00  4.5858605428931004e-01  8.5899954014197744e-01  9.7669517866008138e-01  1.4854715472223983e+00  4.2018867080452138e-01  4.2140520602076736e-01  4.6432300226618056e-01  4.1843898658161777e-01  4.2723335839927173e-01  4.4600344177107709e-01  4.3553236620545482e-01  9.4240948427619542e-01  4.5627035656994175e-01  1.2678387918380394e+00  8.8546057523737742e-01  1.2915072297327759e+00  8.8076086241476659e-01  9.5455892880544535e-01  8.0292066528889960e-01  4.1858618155857824e-01  9.5643632440249793e-01  9.7305296636750882e-01  4.7970337260379498e-01  9.6993082907544148e-01  8.2208468759461073e-01  1.2706875542190887e+00  4.0829491957062886e-01  1.2586805776294878e+00  3.9567088550433999e-01  9.5628667360308728e-01  1.2956863035923132e+00  7.8650526736495052e-01  1.2853649745990798e+00  1.1448494662977551e+00  7.7031678612442334e-01  1.3539623952551845e+00  1.2669274919124363e+00  7.6562924155820322e-01  1.4342307092674049e+00  1.4054459960566976e+00  1.2910084664692847e+00  4.1062485200293120e-01  3.7992421317452429e-01  1.4662936117843377e+00  1.0968769246132455e+00  1.4645701174746517e+00  8.6766179238873553e-01  1.1325583052693782e+00  3.7507174447409897e-01  3.6241406415816868e-01  7.1945576701575942e-01  7.0703056810389764e-01  4.7639146707072599e-01  1.2620378524301548e+00  7.4366342839367383e-01  7.6399988178636624e-01  1.3212494279687799e+00  3.9134496965229826e-01  5.3208683044220517e-01  7.4276258695957365e-01  3.6306912887697651e-01  3.6987075258826779e-01  1.1488122709990154e+00  1.3682232451787331e+00  8.8668025389524308e-01  1.3704645137533504e+00  7.6405564197858455e-01  7.6125722238636839e-01  6.3871483176796018e-01  3.7888388211707341e-01  1.4351582921148096e+00  7.1199916025489474e-01  7.9480714412187614e-01  6.6729192735201692e-01  1.4959775539872067e+00  1.4362431289575728e+00  1.0010450772062895e+00  1.1237789712948800e+00  7.4917330513132341e-01  1.1205457033640218e+00  1.1586888290662545e+00  9.5809283218670260e-01  1.0785394448227110e+00  3.5990190296345531e-01  1.4955225269498145e+00  6.7909244514321832e-01  1.1044956431784865e+00  8.9460631209184416e-01  3.2362618059805931e-01  3.5179388249521648e-01  1.0337519588062731e+00  1.2904476022639524e+00  1.3597041911454759e+00  6.6242932939019539e-01  3.9793218486153753e-01  3.0895952306310803e-01  3.1916940416613238e-01  4.3857595359477047e-01  3.3069363583476380e-01  3.3846001464649506e-01  1.0606086469243785e+00  1.2879437620218182e+00  3.2448245953548155e-01  6.9974958050805280e-01  3.2293770560838070e-01  3.0170610407128268e-01  3.2420085888603550e-01  3.0008214097861169e-01  9.8755591052278258e-01  8.9865694430170118e-01  1.0605443403106058e+00  7.6773218987908520e-01  2.9653455746354146e-01  6.7276476035395527e-01  2.9214213215708984e-01  3.0735982209691270e-01  7.4381277563184867e-01  6.4797242564940050e-01  3.1221999431631009e-01  6.8177455192153347e-01  2.9658895779436728e-01  3.0073189833593045e-01  1.4988237906170401e+00  2.8672002798952118e-01  2.9999153706142095e-01  1.2368525542747317e+00  1.4368826705099864e+00  9.5797349235979690e-01  3.1700000199273298e-01  1.2566540381000546e+00  1.1894436716842394e+00  1.3531478449870975e+00  1.4250140519937140e+00  6.1634086658318832e-01  9.4930832810046517e-01  1.1987782029025964e+00  1.1455693299439422e+00  1.2191458666912933e+00  1.1117759139878622e+00  9.9799122023247833e-01  1.0019121526206278e+00  1.3585845157646812e+00  1.2676228913037373e+00  1.1843959521518452e+00  2.7866173933589750e-01  6.1012559698611568e-01  7.5593176167394216e-01  6.5158593987238678e-01  1.2578671898708169e+00  1.1669696390723745e+00  1.1821972440936934e+00  5.9597847248911773e-01  1.1090614098453153e+00  9.6491576208340180e-01  2.8516329914911709e-01  3.0520810292959660e-01  2.8274791048086106e-01  6.4768344852826398e-01  2.7973397494045293e-01  1.3695259045940169e+00  6.6547657117153824e-01  9.5339505940676039e-01  1.0658495051044046e+00  5.3849443008189724e-01  8.9560894220350884e-01  1.5006296451873176e+00  5.1393518573539965e-01  2.5747461173669595e-01  1.4242400482963136e+00  9.3811351898285456e-01  2.7713525940551642e-01  2.7734491342502954e-01  1.1229655168015298e+00  1.0301163821947705e+00  9.6034807754363383e-01  2.6967065014992431e-01  6.7024959056031841e-01  9.3761997048995260e-01  8.0406655941538652e-01  8.3161512888125766e-01  5.7961078728844662e-01  1.3769596473109471e+00  1.0650572154371429e+00  8.0650984843228068e-01  1.3349438918068606e+00  1.4626053176918790e+00  5.5089877331258019e-01  2.6950428733882603e-01  1.1673369280183359e+00  1.2066013191412803e+00  1.0289881401924901e+00  6.7187875742572700e-01  5.8982460216772359e-01  3.7043269429341147e-01  8.1242987522004140e-01  1.2463387840757092e+00  1.2584044564454069e+00  1.4062560029035938e+00  1.3531118303624756e+00  5.2625165189148349e-01  8.7078598012698916e-01  5.6071598292682401e-01  6.6449801344475246e-01  1.3793450169993906e+00  6.7943817312339250e-01  2.6556622750095432e-01  6.4369559863907388e-01  2.5496586436373736e-01  1.2566152180665702e+00  7.6408600970394502e-01  3.4301627756141917e-01  5.5660694798548871e-01  8.8254637664871038e-01  8.6707403593281474e-01  1.0080562192068352e+00  2.6376467310678542e-01  6.3153822231747936e-01  1.3392545601593804e+00  5.3494166499035634e-01  2.4498023896341539e-01  2.4016822876979438e-01  7.7465702731155273e-01  1.0199636947636030e+00  8.6351736395555634e-01  8.1960971632674651e-01  1.0118988901103025e+00  8.8070355928043442e-01  1.1673421987971075e+00  9.4831981570128154e-01  2.6219664675752441e-01  1.4383891331058480e+00  1.5039143731573257e+00  1.4747864997277247e+00  1.4393071751604494e+00  1.3137746427783257e+00  1.2142445072507020e+00  1.1272623675757945e+00  5.8298649950431580e-01  1.0541927825145061e+00  2.3364129970001332e-01  2.5630341463161221e-01  6.2184271235278032e-01  3.6157145351871450e-01  1.4747384575412663e+00  2.4821922619351411e-01  7.9714833853591638e-01  8.6619846215316787e-01  1.0679801278207290e+00  9.1377870515691784e-01  1.3291215488333332e+00  2.6475229140470796e-01  6.0539729885541405e-01  1.1930750288248302e+00  1.3695138140408782e+00  8.7926234857235397e-01  2.4988569751853321e-01  2.3738361999546567e-01  6.0232620652906022e-01  1.0236170085191891e+00  7.7139586065264976e-01  5.6475394073471519e-01  5.9214802287256540e-01  1.2716604166314602e+00  2.3972311967067800e-01  3.3669927297812074e-01  9.9190118829740559e-01  6.5308456849403795e-01  6.1955477554031479e-01  6.1669376487691674e-01  2.5103916153951916e-01  1.4021689530098869e+00  1.2072758437436057e+00  8.3876656068462130e-01  6.5390356882552259e-01  1.0740390504430803e+00  1.2749696541812885e+00  5.1443286714512193e-01  2.3668061288898473e-01  1.0780968386762764e+00  2.2400534922757814e-01  1.4580118141283720e+00  2.3933927803075125e-01  1.0630862441017215e+00  1.0864659921409816e+00  8.7229672734023656e-01  1.2208316085951201e+00  7.8551072300241964e-01  5.7489932046692427e-01  2.2536165418392848e-01  1.0989500769858764e+00  8.3635222271377885e-01  1.0809555545038521e+00  1.4356375025692645e+00  5.2107467205517499e-01  9.2727639924159755e-01  6.4492253791123544e-01  5.8913634175477447e-01  1.2425937424958031e+00  1.0927569071187957e+00  2.3194073373286325e-01  1.3521682316226524e+00  1.2455032491537386e+00  1.3018993175053697e+00  9.9531509335793844e-01  1.3628793923097533e+00  2.3756702726356524e-01  5.6527601192339805e-01  7.4796898933239531e-01  4.9669970255377305e-01  5.0819220715305036e-01  8.3091396270387952e-01  5.2708826616016213e-01  9.2491323463842001e-01  1.0506285107826092e+00  2.6127892958737081e-01  1.3818410028592969e+00  8.4203135904928950e-01  8.5076351729269284e-01  4.9038992129052422e-01  7.7163949284014177e-01  5.7133697524600302e-01  1.0589212142965290e+00  8.2325629338453610e-01  9.2438575191262662e-01  1.2171003097135873e+00  4.7863495813612467e-01  1.4518562441573293e+00  1.4716384913286116e+00  1.5051031470154335e+00  2.2043732806350325e-01  3.3130983878035902e-01  2.2980875315591501e-01  4.5591492592662153e-01  1.0599002082865585e+00  7.6465761646810526e-01  9.9280163002615585e-01  1.0447131051685405e+00  2.1850652971746906e-01  1.2084981680404279e+00  1.3288157536113150e+00  1.1845325447779855e+00  7.5446635697646358e-01  4.7242395759790146e-01  2.1020152682416890e-01  2.6349347353816172e-01  2.2725313351625126e-01  8.4171179709038524e-01  1.2199232571090004e+00  1.4153516140476476e+00  2.2024825539569820e-01  8.5092234384751098e-01  6.7894013012808563e-01  2.1986097943357621e-01  1.0063412896137649e+00  1.0754272013869886e+00  8.3004252982782845e-01  5.2660089503504859e-01  7.3639816938596148e-01  1.5066721706779687e+00  5.3208065797516246e-01  8.9734020710844331e-01  7.5010057510338468e-01  7.7678145578862889e-01  5.8879725916430625e-01  2.0818107346206399e-01  6.9849361474625515e-01  1.2823030149862884e+00  1.1881270151121222e+00  1.3067230544983957e+00  4.9939461476812042e-01  1.4308001772036405e+00  8.9086679930326973e-01  2.1747435928362924e-01  9.9727783601517461e-01  1.3280285035529802e+00  1.1880015197787477e+00  1.9552794176650723e-01  1.1943895150104369e+00  7.0154227814266801e-01  7.1727282724801400e-01  2.1977969621885068e-01  1.3439793483307660e+00  8.7349881830949783e-01  1.2072089275390712e+00  1.3154684040457587e+00  1.3353539995291668e+00  7.8176609792785545e-01  2.0694425522973789e-01  4.8034548930374810e-01  2.1377861737262230e-01  8.9109303136539808e-01  1.3538525393132212e+00  5.1385349072588182e-01  2.0759030912518006e-01  1.0295319327055052e+00  1.9664857248740475e-01  7.5562560087764785e-01  1.4177861510080074e+00  1.4930183360976128e+00  1.4288305490626856e+00  1.2157939618647366e+00  1.8921734046935643e-01  1.9456322784507282e-01  1.3412641880891845e+00  1.3305239455990943e+00  1.4113586247937420e+00  1.0593311720448055e+00  6.1629859963603306e-01  4.6202556250637805e-01  5.5004191708836880e-01  4.6869706032016523e-01  3.3468894813884448e-01  9.6077411253237255e-01  1.3293118833608568e+00  7.7276625889500061e-01  1.4264749043822069e+00  1.2084177938481928e+00  1.3365495453327858e+00  1.2950010836353931e+00  1.2337882023112792e+00  1.2395107139903980e+00  4.6470552427270795e-01  1.8357820376932929e-01  1.4793853300623567e+00  1.4617629465923807e+00  1.8770220086251227e-01  6.5904187784949175e-01  1.4123979692906063e+00  1.8385346870665709e-01  1.1666119877272942e+00  8.4660046071564099e-01  2.1162237033954748e-01  9.9956186499509281e-01  1.9308238218958942e-01  1.0787507345481218e+00  8.4354858751484463e-01  2.0087390318153561e-01  1.4961550509699511e+00  4.8127128734724084e-01  5.2817212312309392e-01  5.0545145402237512e-01  1.1518516343246417e+00  1.0703137741666027e+00  1.0101221394727959e+00  4.4079060915528728e-01  1.3761839847338218e+00  1.3097496944163409e+00  1.0816854286666013e+00  6.7961731396846115e-01  1.2525076667082697e+00  9.8082273960695221e-01  6.1852719249805199e-01  1.0059153486727612e+00  5.0304006975042181e-01  1.8279417053873775e-01  5.2290591514545703e-01  1.9468240416553759e-01  1.8624452978690112e-01  1.1848303782945577e+00  1.0960387073230433e+00  1.0049549501028590e+00  1.1240694161231382e+00  9.2889589474969780e-01  1.3213076213109853e+00  1.1904527205890583e+00  1.1980496644670422e+00  1.3936381491488339e+00  4.7151494270322297e-01  7.5201299994063109e-01  1.4327089252536696e+00  1.3297964920421093e+00  7.1564697969710911e-01  5.1133931019823486e-01  1.4370412819099094e+00  1.4696741350303815e+00  1.1951149113883268e+00  5.0529005930313098e-01  4.0936674661369093e-01  1.9659567962600244e-01  1.9486926836780713e-01  1.2430011870270370e+00  9.1393777448226488e-01  9.4644002600538923e-01  6.2716253708144631e-01  1.0628506610653221e+00  1.2993494300122819e+00  4.2622778054206573e-01  7.2250192482722331e-01  1.7909185771241601e-01  8.2797934553354058e-01  1.3066480263827356e+00  2.6878828100201696e-01  7.1034402290753840e-01  1.6934724186392275e-01  1.8303296200301244e-01  1.3885408980187863e+00  1.1737683379351849e+00  1.4124588491364209e+00  5.3944221658434688e-01  4.8084272778565523e-01  4.9172059406289237e-01  1.3183514016855831e+00  1.2409195505597370e+00  1.1182828765888677e+00  5.6806843826513465e-01  1.7199397529272326e-01  1.6640519474671669e-01  6.5509288050714576e-01  7.9511059858425803e-01  1.1596370449805609e+00  8.6724062138662572e-01  7.5474139943597018e-01  6.5082196636148459e-01  6.2682846985016338e-01  7.0576985794874936e-01  6.1667689311223794e-01  6.0374440556247222e-01  1.4534033620530271e+00  1.9537338216270059e-01  3.8822405242378721e-01  1.2004784677010718e+00  1.3591871691939437e+00  1.2744793181636018e+00  6.9051358306013633e-01  6.4568137554382932e-01  3.3123392845656607e-01  5.6114535852024672e-01  8.4891802123092708e-01  1.0449080919429170e+00  5.5097400820939135e-01  4.4437879589000734e-01  9.7382902260586035e-01  1.4907962619589818e+00  3.9527237640238388e-01  7.6407708740326652e-01  3.9981961197537746e-01  1.7924074106875076e-01  4.1637175242333274e-01  1.0352332493084666e+00  6.3807448961422053e-01  6.6113295338731626e-01  1.8677105016729309e-01  1.2196547456153255e+00  7.5616668558048783e-01  8.0950397662479223e-01  1.0709556125369706e+00  1.0799843712635175e+00  1.2033974759776427e+00  6.4205886110120147e-01  4.3257939799200368e-01  4.6662628535977368e-01  7.8321448613508682e-01  6.8927447191058733e-01  8.8270947900143881e-01  1.4074086767106655e+00  1.0616907801981639e+00  8.0819067794472133e-01  6.9246624334603901e-01  8.3192911653880230e-01  8.7214263971411943e-01  4.7172303989829428e-01  4.8081593495349645e-01  6.6968155911125882e-01  8.2242455200565368e-01  1.2919973768838222e+00  9.6399456974671760e-01  9.0298288129285142e-01  4.5822471974387335e-01  1.1861445916869435e+00  1.3041138583754979e+00  1.1407427095937717e+00  1.1397792271495142e+00  1.0500644700573238e+00  1.2657485139728044e+00  7.7618241862468129e-01  6.5283951018601150e-01  8.5757329714934694e-01  1.6418600790102822e-01  1.2802361745328630e+00  1.6730306858854074e-01  7.8617105006821886e-01  1.1527492576126825e+00  3.6419778615047049e-01  6.2330729580488065e-01  8.4746842337065442e-01  6.5067610864705927e-01  4.5267268787972115e-01  1.3957865649410057e+00  1.4437883878074982e+00  1.1049913203679227e+00  3.7543015476989527e-01  1.3968846854410957e+00  1.7017508256287320e-01  3.9034513405100540e-01  1.7460684985991909e-01  3.7337734817672225e-01  3.9561657410610984e-01  6.4064917031372770e-01  4.2648945349109191e-01  4.0561775482424728e-01  6.2777841677308366e-01  1.4806378411429928e+00  1.6857858117758073e-01  6.3559726376240078e-01  9.0609233604707784e-01  1.6233612256179081e-01  1.2433138661256278e+00  1.1366499761692823e+00  3.9806987721210224e-01  8.4069049050559341e-01  1.5597941255101719e-01  3.8354467103328982e-01  6.7303007741865550e-01  1.4620270616185684e+00  1.4494170303938660e+00  6.0583312698242497e-01  9.8505632564949897e-01  9.1757751177546931e-01  1.4882804022489236e+00  1.4773915482066244e+00  1.4609089516381641e+00  1.08632