<?xml version="1.0"?>
<VTKFile type="UnstructuredGrid"  version="0.1"  >
<UnstructuredGrid>
<Piece  NumberOfPoints="3243" NumberOfCells="6301">
<Points>
<DataArray  type="Float64"  NumberOfComponents="3"  format="ascii">1 0 0  0.9987569212189223 0.04984588566069716 0  0.9950307753654014 0.09956784659581666 0  0.9888308262251285 0.1490422661761744 0  0.9801724878485438 0.1981461431993976 0  0.969077286229078 0.2467573976902936 0  0.9555728057861407 0.2947551744109042 0  0.9396926207859084 0.3420201433256687 0  0.9214762118704076 0.3884347962746947 0  0.9009688679024191 0.4338837391175581 0  0.8782215733702285 0.4782539786213182 0  0.8532908816321557 0.521435203379498 0  0.8262387743159949 0.5633200580636221 0  0.7971325072229225 0.6038044103254774 0  0.766044443118978 0.6427876096865393 0  0.7330518718298263 0.6801727377709194 0  0.6982368180860729 0.7158668492597184 0  0.6616858375968594 0.7497812029677342 0  0.6234898018587336 0.7818314824680298 0  0.58374367223479 0.8119380057158565 0  0.5425462638657594 0.8400259231507714 0  0.4999999999999999 0.8660254037844387 0  0.4562106573531631 0.8898718088114685 0  0.4112871031306117 0.9115058523116731 0  0.365341024366395 0.9308737486442042 0  0.3184866502516844 0.9479273461671317 0  0.2708404681430052 0.962624246950012 0  0.2225209339563144 0.9749279121818236 0  0.1736481776669304 0.984807753012208 0  0.1243437046474853 0.9922392066001721 0  0.07473009358642439 0.9972037971811801 0  0.02493069173807303 0.9996891820008162 0  -0.02493069173807291 0.9996891820008162 0  -0.07473009358642427 0.9972037971811801 0  -0.1243437046474852 0.9922392066001721 0  -0.1736481776669303 0.984807753012208 0  -0.2225209339563143 0.9749279121818236 0  -0.270840468143005 0.9626242469500121 0  -0.3184866502516843 0.9479273461671318 0  -0.3653410243663949 0.9308737486442044 0  -0.4112871031306114 0.9115058523116732 0  -0.4562106573531626 0.8898718088114688 0  -0.5000000000000002 0.8660254037844385 0  -0.5425462638657593 0.8400259231507715 0  -0.5837436722347896 0.8119380057158566 0  -0.6234898018587335 0.7818314824680299 0  -0.6616858375968592 0.7497812029677344 0  -0.6982368180860727 0.7158668492597186 0  -0.7330518718298263 0.6801727377709194 0  -0.7660444431189779 0.6427876096865395 0  -0.7971325072229225 0.6038044103254774 0  -0.8262387743159947 0.5633200580636223 0  -0.8532908816321556 0.5214352033794981 0  -0.8782215733702287 0.4782539786213181 0  -0.900968867902419 0.4338837391175582 0  -0.9214762118704077 0.3884347962746946 0  -0.9396926207859083 0.3420201433256689 0  -0.9555728057861406 0.2947551744109046 0  -0.9690772862290778 0.2467573976902938 0  -0.9801724878485438 0.1981461431993976 0  -0.9888308262251285 0.1490422661761747 0  -0.9950307753654014 0.09956784659581673 0  -0.9987569212189223 0.04984588566069748 0  -1 1.224646799147353e-16 0  -0.9987569212189223 -0.04984588566069723 0  -0.9950307753654014 -0.09956784659581648 0  -0.9888308262251285 -0.1490422661761745 0  -0.9801724878485439 -0.1981461431993974 0  -0.969077286229078 -0.2467573976902936 0  -0.9555728057861408 -0.2947551744109039 0  -0.9396926207859084 -0.3420201433256687 0  -0.9214762118704076 -0.3884347962746948 0  -0.9009688679024191 -0.433883739117558 0  -0.8782215733702288 -0.4782539786213179 0  -0.8532908816321557 -0.5214352033794979 0  -0.8262387743159949 -0.5633200580636221 0  -0.7971325072229226 -0.6038044103254772 0  -0.766044443118978 -0.6427876096865393 0  -0.7330518718298266 -0.6801727377709191 0  -0.6982368180860729 -0.7158668492597183 0  -0.6616858375968597 -0.749781202967734 0  -0.6234898018587337 -0.7818314824680297 0  -0.5837436722347905 -0.8119380057158559 0  -0.5425462638657592 -0.8400259231507715 0  -0.4999999999999996 -0.8660254037844388 0  -0.4562106573531632 -0.8898718088114684 0  -0.4112871031306116 -0.9115058523116731 0  -0.3653410243663957 -0.930873748644204 0  -0.318486650251685 -0.9479273461671316 0  -0.2708404681430046 -0.9626242469500123 0  -0.2225209339563146 -0.9749279121818236 0  -0.1736481776669303 -0.984807753012208 0  -0.1243437046474858 -0.992239206600172 0  -0.07473009358642473 -0.9972037971811801 0  -0.02493069173807316 -0.9996891820008162 0  0.02493069173807279 -0.9996891820008162 0  0.07473009358642436 -0.9972037971811801 0  0.1243437046474846 -0.9922392066001722 0  0.17364817766693 -0.9848077530122081 0  0.2225209339563142 -0.9749279121818236 0  0.2708404681430051 -0.962624246950012 0  0.3184866502516846 -0.9479273461671317 0  0.3653410243663945 -0.9308737486442045 0  0.4112871031306113 -0.9115058523116732 0  0.4562106573531629 -0.8898718088114687 0  0.5000000000000001 -0.8660254037844386 0  0.5425462638657597 -0.8400259231507713 0  0.5837436722347895 -0.8119380057158567 0  0.6234898018587334 -0.7818314824680299 0  0.6616858375968587 -0.7497812029677348 0  0.698236818086073 -0.7158668492597183 0  0.7330518718298266 -0.6801727377709191 0  0.7660444431189778 -0.6427876096865396 0  0.7971325072229224 -0.6038044103254775 0  0.8262387743159945 -0.5633200580636227 0  0.8532908816321558 -0.5214352033794979 0  0.8782215733702283 -0.4782539786213186 0  0.900968867902419 -0.4338837391175583 0  0.9214762118704076 -0.3884347962746947 0  0.9396926207859081 -0.3420201433256694 0  0.9555728057861406 -0.2947551744109047 0  0.9690772862290778 -0.246757397690294 0  0.9801724878485438 -0.1981461431993977 0  0.9888308262251285 -0.1490422661761744 0  0.9950307753654013 -0.09956784659581729 0  0.9987569212189223 -0.0498458856606976 0  0 -1.110223024625157e-16 0  -0.4060952245631048 0.2919625833433866 0  0.07454430279913359 0.4945691341012836 0  -0.3214937308814528 -0.3831413087744865 0  0.4060952245631052 -0.2919625833433861 0  0.4673719130775488 0.1970137823441975 0  0.07065575168974669 -0.5638195129952732 0  -0.5876518183134565 -0.07364232701738999 0  -0.2541979963622033 0.6030288969972762 0  0.4076207702370422 0.5262112245891383 0  0.6613130009878312 -0.07561785461588438 0  -0.2877924882763663 -0.08496671912316978 0  0.1122523041955583 -0.2722698749696852 0  -0.2136446684141768 -0.6649681138278456 0  0.3711239967993034 -0.5916870927688695 0  -0.6811618247539664 0.2288582017624023 0  -0.6036259983084502 -0.3898630043774365 0  -0.1519565356019055 0.3604834946258824 0  0.2223728889826192 0.7073349201016491 0  -0.5313477807263849 0.5182619981567066 0  0.6605018953341746 -0.3386195639300833 0  0.2873299503248539 -0.02875169806262802 0  0.1874625299482133 0.2355619893962034 0  0.7230148253408941 0.1735722145348512 0  -0.4549609197086589 -0.5957654959402137 0  -0.03463157487303079 0.7407085179683447 0  0.6291441987588993 0.406976916748466 0  -0.2289589159049669 0.1405285933300958 0  -0.08807616397075169 -0.392430403720013 0  0.205296612242771 -0.7458798537797463 0  -0.7547001834030465 -0.2123397074488059 0  -0.7837591992851975 0.01954573416024249 0  -0.01646532341657923 -0.7690653170628658 0  -0.4352401762958623 0.07855348178493107 0  0.2338185418859718 -0.4383564083763345 0  -0.4660907991281192 -0.2382969082541435 0  -0.07353959542582791 -0.189593951033018 0  -0.01634378184019994 0.2053797911459911 0  0.5767924862461576 -0.5348822709432305 0  0.4676013569319232 -0.1058100506567658 0  -0.4227737526629002 0.6918385751529503 0  0.3451218286438238 0.3448460222806342 0  -0.2417662837479932 0.783787041456639 0  0.7894336726564478 -0.2075150882455891 0  0.429437930868693 0.7027440193188219 0  0.5795530210908955 0.5802417886451888 0  0.818250434369694 0.01775696154863614 0  -0.09722442279153222 0.5263769109750763 0  -0.3089301091725765 0.4371354806480824 0  -0.7090524339547675 0.409371613613344 0  0.2438561876582929 0.4811936910778122 0  0.5432018434834983 0.04565923381603147 0  -0.3666591398357442 -0.7431965258712754 0  -0.5618207183878967 0.3397086085210991 0  -0.6185121444690291 -0.5572316488307958 0  -0.5977938369819751 0.08892586939414393 0  -0.2319369917805521 -0.2422716374480734 0  -0.2088517301748016 -0.8202123616008853 0  0.3674245052370875 -0.7539747860075445 0  0.5048967506413504 -0.6753011662259081 0  0.06820072641026245 0.3376857440261995 0  0.5825625451404475 -0.2068770910951368 0  -0.2093208387955752 -0.5017643152297908 0  0.4421364691493548 -0.4480702397503655 0  -0.06721994241050155 -0.6264082819342098 0  0.2198456810463068 -0.5890117939449101 0  0.1072482179998102 0.8270400658162729 0  0.101706945347264 0.1114338704246025 0  -0.826215081689274 0.1701570551503884 0  -0.7559016678791552 -0.3875281735895096 0  -0.1403081793782837 -0.05463656608767534 0  -0.4381435912761569 -0.0904638073416138 0  0.2648585596196462 -0.1972910845697012 0  0.1356675309518404 -0.09429826762197367 0  0.08800287638571841 -0.4175523043917539 0  0.772184265774069 0.3484228092971817 0  0.4820585818083429 0.3991084987153591 0  -0.6096551968804708 -0.2170872236035365 0  0.3980609174667186 0.06761537960865138 0  0.2429849976623634 0.1055167835565284 0  -0.4627258547488082 -0.3795349891758816 0  -0.5092671392521492 0.1973579212248526 0  0.7098874552164247 -0.4756664543534329 0  -0.3872144293666887 0.5549387157286028 0  0.007479912798405555 0.612104857903693 0  -0.1106088318060157 0.07657058882501411 0  -0.08645511997809778 0.8639888077054165 0  0.8546013271693483 0.1469869706377941 0  -0.7957961633846122 0.3035577340122536 0  -0.6516041046685823 0.5750440342764058 0  0.7950924905082843 -0.342029907248517 0  -0.8517730591837042 -0.1067410126442437 0  0.3279509223104274 0.7972989472436024 0  0.5615550327388615 0.2917503018191212 0  0.1039924397968217 -0.8490717333777242 0  -0.274352362125688 0.3088893272147279 0  -0.3199998995660726 -0.5804912223174621 0  0.3315659806484027 0.2091724322371269 0  -0.1325896474512148 0.6530104098458814 0  0.1376376998738423 0.6084703306290548 0  0.3241561268038429 0.6261409266958099 0  0.6961548279354922 0.5198857607104763 0  0.5313120496018447 -0.3261229251073059 0  -0.4541049825189052 0.4132022653064708 0  -0.544101644468135 0.646985081491446 0  0.5933756450024116 0.1654697377387106 0  0.6936465783424133 0.04861005800032081 0  0.1936093818855595 0.3634402114305412 0  -0.4937059030800814 
[...]
<PointData  Scalars="velocity-6"> 
<DataArray  type="Float64"  Name="velocity-6"  format="ascii">0.0000000000000000e+00  0.0000000000000000e+00  0.0000000000000000e+00  0.0000000000000000e+00  0.0000000000000000e+00  0.0000000000000000e+00  0.0000000000000000e+00  0.0000000000000000e+00  0.0000000000000000e+00  0.0000000000000000e+00  0.0000000000000000e+00  0.0000000000000000e+00  0.0000000000000000e+00  0.0000000000000000e+00  0.0000000000000000e+00  0.0000000000000000e+00  0.0000000000000000e+00  0.0000000000000000e+00  0.0000000000000000e+00  0.0000000000000000e+00  0.0000000000000000e+00  0.0000000000000000e+00  0.0000000000000000e+00  0.0000000000000000e+00  0.0000000000000000e+00  0.0000000000000000e+00  0.0000000000000000e+00  0.0000000000000000e+00  0.0000000000000000e+00  0.0000000000000000e+00  0.0000000000000000e+00  0.0000000000000000e+00  0.0000000000000000e+00  0.0000000000000000e+00  0.0000000000000000e+00  0.0000000000000000e+00  0.0000000000000000e+00  0.0000000000000000e+00  0.0000000000000000e+00  0.0000000000000000e+00  0.0000000000000000e+00  0.0000000000000000e+00  0.0000000000000000e+00  0.0000000000000000e+00  0.0000000000000000e+00  0.0000000000000000e+00  0.0000000000000000e+00  0.0000000000000000e+00  0.0000000000000000e+00  0.0000000000000000e+00  0.0000000000000000e+00  0.0000000000000000e+00  0.0000000000000000e+00  0.0000000000000000e+00  0.0000000000000000e+00  0.0000000000000000e+00  0.0000000000000000e+00  0.0000000000000000e+00  0.0000000000000000e+00  0.0000000000000000e+00  0.0000000000000000e+00  0.0000000000000000e+00  0.0000000000000000e+00  0.0000000000000000e+00  0.0000000000000000e+00  0.0000000000000000e+00  0.0000000000000000e+00  0.0000000000000000e+00  0.0000000000000000e+00  0.0000000000000000e+00  0.0000000000000000e+00  0.0000000000000000e+00  0.0000000000000000e+00  0.0000000000000000e+00  0.0000000000000000e+00  0.0000000000000000e+00  0.0000000000000000e+00  0.0000000000000000e+00  0.0000000000000000e+00  0.0000000000000000e+00  0.0000000000000000e+00  0.0000000000000000e+00  0.0000000000000000e+00  0.0000000000000000e+00  0.0000000000000000e+00  0.0000000000000000e+00  0.0000000000000000e+00  0.0000000000000000e+00  0.0000000000000000e+00  0.0000000000000000e+00  0.0000000000000000e+00  0.0000000000000000e+00  0.0000000000000000e+00  0.0000000000000000e+00  0.0000000000000000e+00  0.0000000000000000e+00  0.0000000000000000e+00  0.0000000000000000e+00  0.0000000000000000e+00  0.0000000000000000e+00  0.0000000000000000e+00  0.0000000000000000e+00  0.0000000000000000e+00  0.0000000000000000e+00  0.0000000000000000e+00  0.0000000000000000e+00  0.0000000000000000e+00  0.0000000000000000e+00  0.0000000000000000e+00  0.0000000000000000e+00  0.0000000000000000e+00  0.0000000000000000e+00  0.0000000000000000e+00  0.0000000000000000e+00  0.0000000000000000e+00  0.0000000000000000e+00  0.0000000000000000e+00  0.0000000000000000e+00  0.0000000000000000e+00  0.0000000000000000e+00  0.0000000000000000e+00  0.0000000000000000e+00  0.0000000000000000e+00  0.0000000000000000e+00  0.0000000000000000e+00  0.0000000000000000e+00  2.6729677859925471e-01  2.0454758569905035e-01  2.0456753093555721e-01  2.0458044676749426e-01  2.0457757685493091e-01  2.0275848087942469e-01  1.8567135392459311e-01  1.7828236230216940e-01  1.5786997700910890e-01  1.5394876419458942e-01  1.5397229712446736e-01  2.4516689959382248e-01  2.4603173751491839e-01  1.4193866127371588e-01  1.4194033325300609e-01  1.3429107067760179e-01  1.3422629035257980e-01  2.2941896894268421e-01  1.2525371999330218e-01  1.2499954993820382e-01  1.2490094028926922e-01  2.4673408282828152e-01  2.4507774129790794e-01  1.2444595186751688e-01  1.2196753702872642e-01  1.2526454711566273e-01  1.2209335685435434e-01  2.4959328075736437e-01  2.2717183151361497e-01  1.1202627728360247e-01  1.0760653922546388e-01  1.0754512880959002e-01  1.1375557570655168e-01  2.1861319134552562e-01  2.0545133421283157e-01  1.9833528265801723e-01  2.5727746263450468e-01  2.5694046171175167e-01  1.0647096889455016e-01  2.0980365763247752e-01  9.5910407843172757e-02  2.0768189865627587e-01  9.1672761585126480e-02  9.3509151557905928e-02  9.0112533912175649e-02  9.1614992187111263e-02  9.2441740293345884e-02  1.9516367097234966e-01  1.9513877284675821e-01  9.2269370678075710e-02  1.9399056617460997e-01  1.9241518192656387e-01  8.7765845651695318e-02  1.5718446789573171e-01  8.6094280527640191e-02  1.7453439606744811e-01  2.3964563629266561e-01  7.9648193047434160e-02  8.3112164976883993e-02  8.1077133716108293e-02  2.3807061359896289e-01  1.7018749307037676e-01  1.9281843034157595e-01  1.6640659611297226e-01  1.6619099718098107e-01  1.6670354929446837e-01  8.5409264900471724e-02  2.6178981258241452e-01  8.0965803121055488e-02  7.8174209178179299e-02  2.6175796622872582e-01  2.1739823087618954e-01  2.4040424536072522e-01  2.6072588347077935e-01  2.2200598063401217e-01  7.9249745455360940e-02  1.6760831863451439e-01  1.6036004111941193e-01  2.2686578098538807e-01  2.5008933833681718e-01  1.7645295701088651e-01  1.9215415516998219e-01  7.5834043335702539e-02  1.5000641876595275e-01  1.7213338814527401e-01  2.6291411981483320e-01  6.9147664540378143e-02  6.9771420776425314e-02  7.7097147258020637e-02  6.8830918660715515e-02  7.0591630445505954e-02  7.3990037028329347e-02  7.2160799854261798e-02  1.6530865019187008e-01  7.5423756309090428e-02  2.2500201911484621e-01  1.5494130486268248e-01  2.2921388186281982e-01  1.5371597723255692e-01  1.6829172160902844e-01  1.3944836481710174e-01  6.8916644956973624e-02  1.6839090877543172e-01  1.7155242242002575e-01  8.0053460403048712e-02  1.7088334854146719e-01  1.4309446370845461e-01  2.2523268244805905e-01  6.7268622589667967e-02  2.2322082800928619e-01  6.5079349364488809e-02  1.6843948728805858e-01  2.2976910266017195e-01  1.3649062513916246e-01  2.2778074117679584e-01  2.0270642349533716e-01  1.3327162506114648e-01  2.4050483200419689e-01  2.2498811260740345e-01  1.3270665431969117e-01  2.5393502139147933e-01  2.4912229025543994e-01  2.2893253815745990e-01  6.7581208457620057e-02  6.2512368039418675e-02  2.5954789293712882e-01  1.9426888556751112e-01  2.5936099891441505e-01  1.5141468062154759e-01  2.0013880074049173e-01  6.1618352330273282e-02  5.9801806436821307e-02  1.2411089188411596e-01  1.2138133850336376e-01  7.9060391528875243e-02  2.2359903367596351e-01  1.2806354594113911e-01  1.3182746098499254e-01  2.3414565021267464e-01  6.4636233151837794e-02  8.9087678521517361e-02  1.2843328638831750e-01  5.9739984842788571e-02  6.0794893966541023e-02  2.0347649117264702e-01  2.4281915881699545e-01  1.5509418379635459e-01  2.4328540908696109e-01  1.3227714295797802e-01  1.3176478270303008e-01  1.0822771918278153e-01  6.2186765475176181e-02  2.5416030749621366e-01  1.2281884674988178e-01  1.3786640055753013e-01  1.1389466356714072e-01  2.6477160079898349e-01  2.5433657612028954e-01  1.7638346199123706e-01  1.9898106663047116e-01  1.2971109485000448e-01  1.9828986117602357e-01  2.0549984214244607e-01  1.6897244573560025e-01  1.9104166789523960e-01  5.9076593141244894e-02  2.6477324749208958e-01  1.1594143987471457e-01  1.9545512373956234e-01  1.5683303516409841e-01  5.3066135062302795e-02  5.7970391730108241e-02  1.8293694602038624e-01  2.2912779618654588e-01  2.4125164583199507e-01  1.1268647837738001e-01  6.5539042357666916e-02  5.0680257368499834e-02  5.2588222898891521e-02  7.2240680576848779e-02  5.4402521091614663e-02  5.5737306962845415e-02  1.8724749265022003e-01  2.2854069163573590e-01  5.3310181533840956e-02  1.2012278483567358e-01  5.3175599315662431e-02  4.9828176297893753e-02  5.3233057359804686e-02  4.9506020635404761e-02  1.7420087638941212e-01  1.5727294413755794e-01  1.8744777696265152e-01  1.3238739886221723e-01  4.8775611577372813e-02  1.1526582545303586e-01  4.8084239418812673e-02  5.0540240903270070e-02  1.2800635576839228e-01  1.1033728846035366e-01  5.1332453359615726e-02  1.1624271231814880e-01  4.8607465014723031e-02  4.9405830557191513e-02  2.6528620226287813e-01  4.7166086289614786e-02  4.9236514180749015e-02  2.1947774060989397e-01  2.5456399060261953e-01  1.6877536093946455e-01  5.2150694480868703e-02  2.2287999956857568e-01  2.1073880728595887e-01  2.4003368838240549e-01  2.5279881325854414e-01  1.0426070310185505e-01  1.6703757839021538e-01  2.1275310279865375e-01  2.0298911394942346e-01  2.1596022983422916e-01  1.9690683343199664e-01  1.7595218339594021e-01  1.7630400266008359e-01  2.4117181063052934e-01  2.2452759396533326e-01  2.1000576092520729e-01  4.5495531833006655e-02  1.0304808728571900e-01  1.3041029214269492e-01  1.1087644548404292e-01  2.2275124945183206e-01  2.0695183556144212e-01  2.0979092948701797e-01  1.0043497415746225e-01  1.9605607168804631e-01  1.6974851493503043e-01  4.7025324815002628e-02  5.0410813944903536e-02  4.6468210018598549e-02  1.1014868609304898e-01  4.5872644013124804e-02  2.4266134022819671e-01  1.1346814924992508e-01  1.6820008746289256e-01  1.8805509901574929e-01  9.0071605114019987e-02  1.5617618595909233e-01  2.6548033878010213e-01  8.5671768148577507e-02  4.2437538392096526e-02  2.5273541635497354e-01  1.6508911366817780e-01  4.5536597603176632e-02  4.5539312773667087e-02  1.9875716391690301e-01  1.8115711806662510e-01  1.6882024889178524e-01  4.4383276077911815e-02  1.1421785986718863e-01  1.6493964395353156e-01  1.3997704103997072e-01  1.4487011632900709e-01  9.7585440609107954e-02  2.4383558835185029e-01  1.8823541977286229e-01  1.3985979443211088e-01  2.3695908763134818e-01  2.5892146056900495e-01  9.2000609048138934e-02  4.4125172008863338e-02  2.0664250478688195e-01  2.1363088480116377e-01  1.8133370266940463e-01  1.1495669656920247e-01  9.9268061295909982e-02  6.1176402847411451e-02  1.4136680016720440e-01  2.2113472198041761e-01  2.2344834379618039e-01  2.4943775453578274e-01  2.3996933632116335e-01  8.7963783663092571e-02  1.5225112216449718e-01  9.4181608105407225e-02  1.1307192957600803e-01  2.4481200010843471e-01  1.1635179016425309e-01  4.3610539399518540e-02  1.0917052064508376e-01  4.1909338290394275e-02  2.2339125178236555e-01  1.3237043035522150e-01  5.6339140023199556e-02  9.3179682838817834e-02  1.5433132251143997e-01  1.5147609583141086e-01  1.7774482448709450e-01  4.3196268982009976e-02  1.0741715729622822e-01  2.3735979446506086e-01  8.9445505222593188e-02  4.0260327181558316e-02  3.9370280859969596e-02  1.3421520773505163e-01  1.7990421792564634e-01  1.5125037691999726e-01  1.4264855037885613e-01  1.7827199881557565e-01  1.5403659541602471e-01  2.0705234036866083e-01  1.6677632048585275e-01  4.3142428923541275e-02  2.5480249010748146e-01  2.6589968481528142e-01  2.6146997460552823e-01  2.5506899981074233e-01  2.3295817868574228e-01  2.1515713611454801e-01  1.9949239939708197e-01  9.8363591895592961e-02  1.8609662939822114e-01  3.8610055429392470e-02  4.2071720076784301e-02  1.0496530386985391e-01  5.9447382118004148e-02  2.6107247904266512e-01  4.0794765054886585e-02  1.3879949320618373e-01  1.5181449585482704e-01  1.8869413570092275e-01  1.6065141120131418e-01  2.3533262859126272e-01  4.3618330544797294e-02  1.0248045573094509e-01  2.1120655842361236e-01  2.4301366675683428e-01  1.5406276513865558e-01  4.1022088013762753e-02  3.9162017440358757e-02  1.0178972278588647e-01  1.8086980299282843e-01  1.3326596607275937e-01  9.4888733127393307e-02  9.9840603849679466e-02  2.2565447425776863e-01  3.9433351947811418e-02  5.5375306128590394e-02  1.7471849911975798e-01  1.1119169232711777e-01  1.0477815505314397e-01  1.0440303416492923e-01  4.1210330742712138e-02  2.4831456397414328e-01  2.1417675435438688e-01  1.4586385995318199e-01  1.1125721683611420e-01  1.9012133584639029e-01  2.2635851113457076e-01  8.5799456161714749e-02  3.8805153484970795e-02  1.9070014208722982e-01  3.6898658734064511e-02  2.5839948254146256e-01  3.9293625636252334e-02  1.8788976703133023e-01  1.9260078180620105e-01  1.5265206851185559e-01  2.1639838647125542e-01  1.3669648823461975e-01  9.6859105016889130e-02  3.7087002562796019e-02  1.9403670737732021e-01  1.4595551620363353e-01  1.9056987115552060e-01  2.5417972509602454e-01  8.6672947224229857e-02  1.6260744880523118e-01  1.0964123133370654e-01  9.9121421102263255e-02  2.2019176647206348e-01  1.9309394883805350e-01  3.8088446604340589e-02  2.4010046155672118e-01  2.2101325358773660e-01  2.3072808880517892e-01  1.7514957088573421e-01  2.4188482137104983e-01  3.9083154452245125e-02  9.5166890244615179e-02  1.2926931808668013e-01  8.2619667878238781e-02  8.4658562031318954e-02  1.4483143671902826e-01  8.7969884574666299e-02  1.6275837936263801e-01  1.8557598133197620e-01  4.2687099306552935e-02  2.4501929543963719e-01  1.4664984176251175e-01  1.4861138811727548e-01  8.1342816581708902e-02  1.3311882751056719e-01  9.6279371279464968e-02  1.8701460226880318e-01  1.4338284763207323e-01  1.6242742171548064e-01  2.1562850906139142e-01  7.9248611282075943e-02  2.5739128778918341e-01  2.6080546161841239e-01  2.6619064536579340e-01  3.6077234210649012e-02  5.4435400622735067e-02  3.7756309766857780e-02  7.5458214806046711e-02  1.8747850435484356e-01  1.3197017774286127e-01  1.7497715447529869e-01  1.8456600418593613e-01  3.6125003929598276e-02  2.1441173391365800e-01  2.3607064351155313e-01  2.0984623040504707e-01  1.3044819931557969e-01  7.8470044512151269e-02  3.4529619579920394e-02  4.3330576382770207e-02  3.7309421607178407e-02  1.4677052622347483e-01  2.1656287711651481e-01  2.5088486308166608e-01  3.6142510705799845e-02  1.4836813895462753e-01  1.1596319603411862e-01  3.6157469179059348e-02  1.7705202731699521e-01  1.9026853760434728e-01  1.4455125003619140e-01  8.7658088028346764e-02  1.2670737370681270e-01  2.6629408890180234e-01  8.9165643176280632e-02  1.5706623274101378e-01  1.2938765930769686e-01  1.3399089769974382e-01  9.9002108447526813e-02  3.4197833732109405e-02  1.1984955940757437e-01  2.2705162108458743e-01  2.1080769474891503e-01  2.3163971004249428e-01  8.3168081001302546e-02  2.5355413785013992e-01  1.5551619264924352e-01  3.5747187939456006e-02  1.7558289867572571e-01  2.3585568222595990e-01  2.1071700528509377e-01  3.2225853648571660e-02  2.1203903431848758e-01  1.1986174135809002e-01  1.2326408749917653e-01  3.6004436646840131e-02  2.3852396882705870e-01  1.5263847053271185e-01  2.1365803224685295e-01  2.3352255969502492e-01  2.3637683083957126e-01  1.3492814434590267e-01  3.4109762726703838e-02  7.9695765465548518e-02  3.5194388834809000e-02  1.5564754247141013e-01  2.4026884614066579e-01  8.5704608270931126e-02  3.4262127018276127e-02  1.8174472280877793e-01  3.2310986712968302e-02  1.2984074181011607e-01  2.5076614480284976e-01  2.6411464917520944e-01  2.5338879183042229e-01  2.1557446620935106e-01  3.1214151984703262e-02  3.1992498995865808e-02  2.3763632495475612e-01  2.3574610137012053e-01  2.5050915076314989e-01  1.8758099216589402e-01  1.0440103877902139e-01  7.6397236363115115e-02  9.1687810435449144e-02  7.7698897218616059e-02  5.5047818297393261e-02  1.6899384598583431e-01  2.3577881527131100e-01  1.3377578471247467e-01  2.5282456449769763e-01  2.1417185835788824e-01  2.3735215582110525e-01  2.2946492229057827e-01  2.1909017581899373e-01  2.1964236512414326e-01  7.7183898644060292e-02  3.0341073444842687e-02  2.6210238547970288e-01  2.5899609073118313e-01  3.0977831247258981e-02  1.1230126957001509e-01  2.5016560791768094e-01  3.0163440421063205e-02  2.0658641508751560e-01  1.4753287904264339e-01  3.4736965638476634e-02  1.7618339201841871e-01  3.1725034811503385e-02  1.9081079861001574e-01  1.4725864619880158e-01  3.3235751837295310e-02  2.6470769884937301e-01  7.9851680452586948e-02  8.7829858118789558e-02  8.4217552323333944e-02  2.0430586573074966e-01  1.8920096520696875e-01  1.7794995848323461e-01  7.2770831423180943e-02  2.4383387724110034e-01  2.3239821725399731e-01  1.9135448769435587e-01  1.1632912284637273e-01  2.2215537603418345e-01  1.7307983163014529e-01  1.0464214054352658e-01  1.7677596591188721e-01  8.3718724755890900e-02  3.0133997668769019e-02  8.7572949476713777e-02  3.2058763611302520e-02  3.0770235772666469e-02  2.1021923637537598e-01  1.9365837264895416e-01  1.7704461911116953e-01  1.9909815428157135e-01  1.6322946054118045e-01  2.3436086298059228e-01  2.1085851100129518e-01  2.1216818619348557e-01  2.4715672368064018e-01  7.8195980348314043e-02  1.2977688434990950e-01  2.5346846978685744e-01  2.3585756857557064e-01  1.2327676810319181e-01  8.5497866727001562e-02  2.5457972601191126e-01  2.6014867770915395e-01  2.1178278928517696e-01  8.4103639895705323e-02  6.7804744017522234e-02  3.2439563775134315e-02  3.2242571255660157e-02  2.2040123130467468e-01  1.6015082144801673e-01  1.6646957767985227e-01  1.0642325493314192e-01  1.8782645710559503e-01  2.3057549171519157e-01  7.0211919335964143e-02  1.2405812298557353e-01  2.9447857425456480e-02  1.4468435503936067e-01  2.3196843145395027e-01  4.4160880918384146e-02  1.2168565760001064e-01  2.7893636554039404e-02  3.0080462653249717e-02  2.4630189319565801e-01  2.0825911634660699e-01  2.5054710835522315e-01  9.0021154708391046e-02  7.9854143516765855e-02  8.1622898690485196e-02  2.3377333994141333e-01  2.2033407033596103e-01  1.9823706461909135e-01  9.5561088986731824e-02  2.8499361889260503e-02  2.7615388835092236e-02  1.1155450386222003e-01  1.3813614093445328e-01  2.0554735021708911e-01  1.5131953857710015e-01  1.3004795023362473e-01  1.1024988510142460e-01  1.0597055484148625e-01  1.2111481991513970e-01  1.0414392721502300e-01  1.0216880912933334e-01  2.5720594596942731e-01  3.1983302583487930e-02  6.3981485300439053e-02  2.1285714811891748e-01  2.4094343167224644e-01  2.2602874987965829e-01  1.1812757250701388e-01  1.0950505086835084e-01  5.4576422918372294e-02  9.3848191080304663e-02  1.4800881536338087e-01  1.8448291631904087e-01  9.2520574484507762e-02  7.3500823550315120e-02  1.7160316315435306e-01  2.6400613829977987e-01  6.5110850811168602e-02  1.3223347308328023e-01  6.5803789616823732e-02  2.9523045278606483e-02  6.8599729892129799e-02  1.8298458794713054e-01  1.0820763600015196e-01  1.1289015263625934e-01  3.0701212599319298e-02  2.1617533447989923e-01  1.3064596545403687e-01  1.4121505363351594e-01  1.8920111300229869e-01  1.9057926707255135e-01  2.1358131594982438e-01  1.0889784540663446e-01  7.2037142941490565e-02  7.7427609462136518e-02  1.3534927911045561e-01  1.1776510353580429e-01  1.5469863791979602e-01  2.4929768280410652e-01  1.8775509718817585e-01  1.4067965945532451e-01  1.1837487657358542e-01  1.4467990726696764e-01  1.5261258908522854e-01  7.7932623773789803e-02  8.0131957757732936e-02  1.1413438674920301e-01  1.4345355791458014e-01  2.2907597530487098e-01  1.6949879499449588e-01  1.5870005733128800e-01  7.5913099789782112e-02  2.1005036334479649e-01  2.3162156100144485e-01  2.0241718566689509e-01  2.0195166152125632e-01  1.8538731743286371e-01  2.2437383707476372e-01  1.3419271257917625e-01  1.1101403885158097e-01  1.5010484992538095e-01  2.7159719346486959e-02  2.2716114837713694e-01  2.7504836603457823e-02  1.3633695558965658e-01  2.0376604020094771e-01  5.9849622429692183e-02  1.0539672181741892e-01  1.4831703823883413e-01  1.1089866773272619e-01  7.4887863450332784e-02  2.4755697684644035e-01  2.5508039076063699e-01  1.9547648308554899e-01  6.1803045901841575e-02  2.4751981015111124e-01  2.7952983440514102e-02  6.4144376740737974e-02  2.8754389486943296e-02  6.1351721749858465e-02  6.5125787508000715e-02  1.0892543471361965e-01  7.0593674282099492e-02  6.6938281015045439e-02  1.0599310513953616e-01  2.6220868448358703e-01  2.7835673205283878e-02  1.0779763624498216e-01  1.5908232217989482e-01  2.6801300417111186e-02  2.2011672367798371e-01  2.0130353470952125e-01  6.5565907792516837e-02  1.4692503733165885e-01  2.5758990058788848e-02  6.3250652112018940e-02  1.1454658150080416e-01  2.5884229931469338e-01  2.5667076061547012e-01  1.0226477445405098e-01  1.7339811717334239e-01  1.6119918502689917e-01  2.6321326900386460e-01  2.6143767852626881e-01  2.5879980315030038e-01  1.92083