<?xml version="1.0"?>
<VTKFile type="UnstructuredGrid"  version="0.1"  >
<UnstructuredGrid>
<Piece  NumberOfPoints="508" NumberOfCells="920">
<Points>
<DataArray  type="Float64"  NumberOfComponents="3"  format="ascii">-0.9465647730977796 0.06336505606680209 0  -0.9465647730977796 -0.06336505606680186 0  -0.929673302297314 -0.1889644172737477 0  -0.8961917893929833 -0.3111917039777933 0  -0.8467177127757575 -0.4278657673520866 0  -0.7821339385149331 -0.536904555971654 0  -0.7035929655922124 -0.6363622700704025 0  -0.6124963595300723 -0.724464084384042 0  -0.5104697414218098 -0.7996378199489758 0  -0.3993337786846224 -0.8605419996731484 0  -0.2810716952064151 -0.9060897870265353 0  -0.1577938806685372 -0.9354683806647681 0  -0.03170023059192278 -0.9481535188883807 0  0.09495911085059688 -0.9439188351052562 0  0.2199239047103645 -0.9228398973478262 0  0.3409641512804809 -0.8852928597597415 0  0.4559198844934073 -0.8319477501162668 0  0.5627397165666062 -0.7637565131627591 0  0.6595174450661225 -0.6819360231381343 0  0.7445260691341762 -0.5879463686252445 0  0.8162486078603793 -0.4834647972355305 0  0.8734051708420261 -0.3703557850856541 0  0.9149757978586441 -0.2506377651770328 0  0.9402186600862957 -0.1264471084111084 0  0.9486832980505138 0 0  0.9402186600862958 0.1264471084111082 0  0.9149757978586442 0.2506377651770325 0  0.8734051708420262 0.3703557850856538 0  0.8162486078603796 0.4834647972355302 0  0.744526069134176 0.5879463686252447 0  0.6595174450661229 0.6819360231381338 0  0.5627397165666067 0.7637565131627587 0  0.4559198844934078 0.8319477501162664 0  0.3409641512804815 0.8852928597597411 0  0.2199239047103645 0.9228398973478262 0  0.0949591108505969 0.9439188351052562 0  -0.03170023059192275 0.9481535188883807 0  -0.1577938806685371 0.9354683806647681 0  -0.2810716952064148 0.9060897870265353 0  -0.3993337786846222 0.8605419996731485 0  -0.5104697414218097 0.7996378199489759 0  -0.6124963595300722 0.7244640843840422 0  -0.7035929655922125 0.6363622700704024 0  -0.7821339385149326 0.5369045559716545 0  -0.8467177127757571 0.4278657673520871 0  -0.8961917893929834 0.3111917039777932 0  -0.9296733022973139 0.1889644172737479 0  1.665334536937735e-16 0 0  -0.4711614908402903 -0.06336505606680212 0  -0.2819995976129952 0.3827329457040545 0  -0.04758582033792987 -0.4730157190664601 0  0.3919422238159588 -0.269053106228854 0  0.3069335997479054 0.3630427607417433 0  0.560290751030499 0.07535177543784594 0  -0.4085262597635105 -0.4224130461062986 0  0.01963613962639069 0.5873167020081569 0  -0.5771899418591069 0.2447496776950459 0  0.2638997892342953 -0.568689313208225 0  -0.1960165452964587 -0.2191820020008493 0  -0.001647856502557665 0.2940416987435727 0  0.2745696275793513 0.07913529568122213 0  0.5794677403561973 0.3476460284835758 0  -0.2481675983493598 0.6443522054073147 0  -0.2481675983493598 -0.644352205407315 0  -0.6356998611724314 -0.2695600266899958 0  0.6507252557161404 -0.1822011657676325 0  0.2817371061736092 0.6269183885551353 0  -0.7088631319690349 1.110223024625157e-16 0  -0.5087365836080424 0.483050965096146 0  0.4997806331613261 -0.4923113497557868 0  0.05328234718754289 -0.6995084973463059 0  0.1613446711574949 -0.3476887590421708 0  -0.3528859255055773 0.1496365585519692 0  0.2172081448848633 -0.134078040910654 0  0.4863187674127136 0.5466810780430433 0  -0.2729040225323982 -0.03411464659018384 0  0.7464113425953006 -0.003949338248170569 0  0.7188473348385179 0.201007459620476 0  0.1291784304628875 0.7494679984564966 0  -0.5976818357730384 -0.4719846349298197 0  -0.4517495367906516 -0.61311942428233 0  -0.08499277992538204 0.7532822680226201 0  0.4785062337800793 -0.09801879715265324 0  0.419141185327253 0.2064532858115132 0  -0.1461718284818602 0.1462062965938929 0  0.01033569317459392 -0.206484038250012 0  -0.230115949072509 -0.4624073706047499 0  -0.1395098251326908 0.4973036648754822 0  0.1694317867443801 0.4830540017790297 0  -0.4544598264102497 -0.2454387756372369 0  -0.6705899459254726 0.3971910385058813 0  -0.7516993779842345 0.205911732992134 0  0.4193769802486386 -0.6569433347582134 0  0.2267822265693422 -0.7438859173144039 0  0.1061423342818165 0.1476203053401834 0  0.6548874004557083 -0.3760179415969603 0  -0.5607449973118277 0.07810808880063194 0  0.3120057465346793 -0.4120702003988702 0  0.1015704565313549 -0.5422963500555877 0  -0.4390940537856272 0.3340633186294258 0  -0.4726947138168044 0.6415464481836683 0  -0.1139737302835846 -0.7622790756492588 0  0.1532659441904012 0.3257557705965058 0  -0.3545651104846457 0.5251141183716075 0  -0.7782811129876676 -0.2131932224822174 0  -0.07209892873040179 -0.6196397107564068 0  0.7272440682264932 0.3485477969305569 0  0.7969477151393666 -0.161986754074599 0  -0.0859305989579246 -0.325123330456455 0  -0.1282675523323983 -0.0825298398982135 0  -0.2939983719414629 -0.3294482662464435 0  -0.00294435476149845 0.441545618947869 0  -0.13821332687375 0.3497997446711859 0  0.6275448273899911 0.4914607606096521 0  0.4377734782367486 0.6857609792770327 0  0.4168975425835388 0.03701950876768544 0  0.1491016714175319 -0.001432391018264062 0  0.2591464113838388 0.2246918566427344 0  0.5400956729626648 -0.2815299739906376 0  -0.6132223148517332 -0.1187503261610658 0  -0.3318618249520036 -0.1671144494673706 0  0.4424262072747103 0.3416358008723362 0  0.5821484892075346 0.2106348104520794 0  0.6072951040670245 -0.05279719091158472 0  -0.2479172433525297 0.2450415300441352 0  -0.5263379309252311 -0.3585428451022553 0  -0.3369095849012798 -0.543679758653242 0  0.3015676760226113 0.4956711620401787 0  0.1496012168953781 0.6143012282939863 0  0.2679949458870628 0.7660440246938033 0  -0.221226454831892 0.7806761310198629 0  -0.3614698908482268 0.7260727412477894 0  -0.3645601353733232 -0.7239119525632581 0  -0.7113259253314306 -0.3885460530217094 0  0.3513094820738911 -0.1410649585268748 0  0.6340175349329695 -0.5097664995935686 0  0.003612507922470649 -0.8213775034711107 0  -0.1183673958920875 0.6265955414856604 0  0.7383767373743625 -0.2772719602781208 0  0.02781231553376926 0.8318660258735304 0  -0.2448023417390233 -0.7792488169351434 0  -0.5799825215823653 -0.5996975170502902 0  -0.01989910035609904 0.1262774233985488 0  0.03438161362735093 -0.3728465110580088 0  0.3777833745486598 -0.5179714552300002 0  0.4340030051473456 -0.3864100949246568 0  0.5449742906981483 -0.6163331435640564 0  -0.5869139033032459 0.5841741878748657 0  0.07359879661611077 -0.09981666330022602 0  -0.8138433016290865 -0.08371556782121499 0  -0.813319291069319 0.08568129116712685 0  0.2724666930428666 -0.2961226798601959 0  -0.4584899909598791 0.2126350452176232 0  0.1974077257894623 -0.4652493138777565 0  -0.4373042775091656 0.05717354919814288 0  -0.7733852572651181 0.3279436780205413 0  0.350378935882198 -0.7608879644017593 0  -0.5556118756381931 0.3628039642730669 0  0.1292328606284164 -0.8230528356347999 0  0.1689774562091831 -0.6401090544397133 0  0.8111292920947289 0.1090862773596881 0  0.3201265368444412 -0.02846016603864761 0  -0.6746092082539837 0.1145374381478013 0  -0.1712986514434712 0.02917070436741921 0  0.8473846908143308 -0.05875944816795632 0  -0.170207660307078 -0.5602190832227798 0  0.5479964198902548 0.6462216397388892 0  0.1779304156590365 -0.2379161961217667 0  0.3850227996703128 0.5893363425001428 0  0.5069824645446533 0.4350372296811085 0  0.7644255407105104 -0.383964063391769 0  -0.2502025275642448 0.1073259654485461 0  -0.2441336549846551 0.5336637680089233 0  0.5439313993011375 -0.3915097232814274 0  0.02154485201380807 0.720606438673704 0  0.4069002149129511 0.4742476241423181 0  -0.6770821838422217 0.282114533382457 0  0.8118927768796078 0.2819198966948331 0  -0.3409307831633032 0.2950820206681214 0  0.3138514768431007 -0.6617685452093671 0  -0.4133166344861551 0.4368832868313493 0  -0.1900504626142895 -0.323149534130764 0  0.7049886881108122 0.0948117548166628 0  0.08216051744973084 -0.2810215532571624 0  -0.1007713878491534 0.246383859461223 0  -0.09230234170453583 -0.2215773285521553 0  -0.6723312658673783 0.5101846208763188 0  -0.6061938317638829 -0.01520018702249123 0  -0.7180367416922421 -0.1270240075351009 0  -0.5520744330729614 -0.2049441003719872 0  -0.4880504496136848 -0.5046404536986372 0  -0.02788496224622227 -0.09760268386822281 0  0.714062422044896 -0.1013925411460909 0  -0.08635353648819749 0.8583771355799965 0  -0.3475604962476587 0.6259527242641452 0  -0.3687177402837083 -0.07120882769995554 0  -0.2392065059811992 -0.12862017416772 0  -0.3347038935923278 0.04826812632616842 0  -0.7905676691372767 -0.3183438196072534 0  0.6556245743426188 0.278614661862748 0  0.3728118348919671 0.7680444329465866 0  -0.1396757809455578 -0.4130351775921901 0  -0.8689279192939255 1.249000902703301e-16 0  -0.08972171221041854 -0.8605536056691007 0  0.1437601344389365 0.8522704403869571 0  -0.523672501287141 -0.6809915534466564 0  -0.6787894220247249 -0.536034656522877 0  -0.3141583833478663 0.8119602182844217 0  0.09555668471983116 0.4111664754774389 0  0.6407172150406996 -0.2793691629862481 0  0.5464304979027355 -0.1773130855887543 0  0.6478758379146231 0.5859691030198054 0  0.3641239309322288 0.2855266059365242 0  0.3326820882875882 0.1588883139364683 0  0.5020396420198809 0.1541707317733041 0  0.2064368017379822 0.692014959111797 0  0.07462402384693949 0.5065804697955059 0  0.5206014709816328 -0.01190099483498296 0  0.436841936132651 -0.1843547069135535 0  0.5138770612895097 0.2778308526502611 0  0.004067133449276561 -0.5570123285169645 0  0.7222498410728174 0.4957964501043004 0  -0.617751190369713 -0.3802078535546776 0  0.1111642133615538 -0.4273938487755114 0  -0.174359622185061 0.7005899321394173 0  0.1614160306413986 0.2282990358238475 0  0.20174771432926 0.1413938412743778 0  0.721248025622413 -0.4696981489242774 0  0.4626027726152205 -0.5761041992933956 0  -0.5974651131117474 0.454828158411493 0  -0.3216727323434518 -0.4529005635263932 0  -0.04921124524812827 0.5233469797001399 0  -0.19710291760121 0.4230397875451303 0  -0.437637705564850
[...]
<PointData  Scalars="f_27-2"> 
<DataArray  type="Float64"  Name="f_27-2"  format="ascii">0.0000000000000000e+00  0.0000000000000000e+00  0.0000000000000000e+00  0.0000000000000000e+00  0.0000000000000000e+00  0.0000000000000000e+00  0.0000000000000000e+00  0.0000000000000000e+00  0.0000000000000000e+00  0.0000000000000000e+00  0.0000000000000000e+00  0.0000000000000000e+00  0.0000000000000000e+00  0.0000000000000000e+00  0.0000000000000000e+00  0.0000000000000000e+00  0.0000000000000000e+00  0.0000000000000000e+00  0.0000000000000000e+00  0.0000000000000000e+00  0.0000000000000000e+00  0.0000000000000000e+00  0.0000000000000000e+00  0.0000000000000000e+00  0.0000000000000000e+00  0.0000000000000000e+00  0.0000000000000000e+00  0.0000000000000000e+00  0.0000000000000000e+00  0.0000000000000000e+00  0.0000000000000000e+00  0.0000000000000000e+00  0.0000000000000000e+00  0.0000000000000000e+00  0.0000000000000000e+00  0.0000000000000000e+00  0.0000000000000000e+00  0.0000000000000000e+00  0.0000000000000000e+00  0.0000000000000000e+00  0.0000000000000000e+00  0.0000000000000000e+00  0.0000000000000000e+00  0.0000000000000000e+00  0.0000000000000000e+00  0.0000000000000000e+00  0.0000000000000000e+00  4.9943228060497813e-01  3.7416038948867503e-01  3.7367974714890639e-01  3.7383779306492981e-01  3.7417618130659763e-01  3.7376004842645483e-01  3.2161361925261156e-01  3.0783915467302592e-01  3.0745952996204301e-01  2.8097198881175595e-01  2.8149100873150712e-01  4.5174555842342456e-01  4.5183807109485097e-01  4.5425542847945072e-01  2.4548626114429023e-01  2.3455050269962502e-01  2.3442610330657138e-01  2.3461056996994475e-01  2.4545330492327044e-01  2.3683436718626846e-01  2.1982614664055872e-01  2.2644149703114427e-01  2.2665498327150643e-01  2.2590479105610933e-01  4.1868411242313014e-01  4.1829718702375318e-01  4.6352731666871044e-01  2.0253677165473047e-01  4.5779608879295786e-01  1.8995109819049447e-01  1.8959438516222443e-01  1.7803399695643560e-01  1.7737151948702443e-01  1.7741842118260881e-01  1.8058180988623984e-01  3.6697069243864117e-01  3.7858059222650281e-01  4.7614845575919845e-01  4.7648392142147994e-01  3.5128108851370327e-01  3.5173017850573324e-01  3.5393593832572973e-01  3.5162607956635700e-01  1.6186924690541005e-01  1.6209512104759810e-01  1.6148849104882734e-01  1.6329593171197873e-01  4.8143141177532545e-01  1.8263340350663282e-01  3.2201583239715409e-01  3.5075412694346575e-01  3.3103505718450638e-01  3.3021402581055542e-01  1.4583658105492572e-01  1.6913298965264961e-01  4.2749936105588177e-01  2.7680973676710102e-01  1.3756385223757961e-01  2.8351232482563044e-01  1.3779427443688430e-01  1.3177383233591475e-01  4.3691605615896584e-01  4.8679468908655216e-01  3.9143551046922131e-01  3.9149196924889440e-01  4.2123068551870130e-01  1.4635173555061781e-01  1.3143380004650582e-01  4.0243163064434612e-01  4.8708570943111545e-01  4.3422562098681239e-01  2.9363417846311657e-01  2.8276937811459657e-01  4.2293153930047606e-01  3.2579109532736134e-01  2.8637231110173184e-01  2.9300418298052788e-01  4.3235057892163981e-01  2.7394427244426256e-01  2.7183702828175804e-01  3.1278146905742388e-01  2.7727769170166183e-01  1.3314926051050069e-01  1.3325284172742108e-01  1.3325103140759212e-01  1.3401380712542593e-01  1.3423415123240692e-01  4.2006543202954638e-01  1.3126210984446571e-01  1.2430102045877074e-01  2.7353511588085710e-01  1.5365689773615707e-01  1.1417921917421509e-01  1.2830780519941407e-01  1.1243285480465799e-01  4.9057338451374666e-01  4.2189956258240990e-01  2.7149303676073056e-01  3.1283982344104461e-01  1.2275499973890430e-01  1.1889218171096788e-01  4.9119417009360372e-01  1.2701970756218489e-01  1.2759207478104412e-01  4.0952457492146782e-01  3.5761312428785352e-01  3.5813085064063133e-01  3.9239587854950680e-01  1.0855688512092496e-01  1.1104001058363049e-01  2.5533100676934628e-01  1.1285522842507420e-01  2.5639910470944427e-01  1.2663701006722750e-01  4.4258500906606024e-01  2.3949880399985818e-01  4.8371549984730311e-01  9.9217536642810286e-02  3.0984700418179661e-01  1.0157948025149473e-01  4.5123200548067172e-01  2.2508287980358857e-01  2.5165411527983567e-01  9.4185761535900511e-02  4.5865391353120749e-01  3.0845952286243350e-01  2.4990542499798699e-01  2.1190593317310882e-01  2.8320395638636975e-01  2.0109384271054248e-01  8.9511599220910260e-02  3.8674798279472333e-01  2.0222676207017884e-01  2.9897955287507288e-01  4.2172035559543719e-01  2.1911630208845287e-01  4.5184395317594250e-01  4.6021030388097539e-01  4.6760249923468389e-01  1.0450189175173819e-01  2.9579861802908031e-01  2.0432701170403086e-01  3.0706376857645040e-01  2.2608204687161784e-01  4.9422327057213183e-01  2.1133871079101499e-01  8.6210339060962468e-02  2.1475815985448324e-01  4.2155820758777346e-01  4.5904372144613104e-01  4.3613727727296731e-01  9.6660177622631405e-02  2.1858070182414999e-01  9.5257370866634772e-02  3.9422782870038731e-01  8.0201395205004231e-02  8.4170632489235273e-02  8.4705827652195573e-02  9.0171011456626343e-02  8.4133071215558075e-02  7.8753857604940330e-02  4.0079033440370665e-01  2.2811302038062098e-01  3.1643822514142539e-01  7.6178844379759969e-02  3.8114194335212082e-01  4.2440214762273443e-01  3.4669225339781229e-01  2.1080106163402729e-01  3.5440692266859269e-01  3.4951336676494354e-01  3.7523890152132411e-01  3.1065728197744247e-01  3.2747665145534649e-01  7.3540204948276386e-02  2.0754574307720258e-01  3.9127604946119227e-01  2.1043090181277260e-01  4.5643016915196316e-01  4.6616974221329316e-01  8.8293517898805809e-02  1.9719735623851861e-01  1.8670055875510999e-01  3.2844839698817652e-01  3.4650858312323213e-01  3.7855254412321698e-01  3.3064515712726827e-01  3.6074483750659525e-01  3.0122239035757481e-01  3.6648549239107742e-01  2.1149681468463538e-01  4.7557921938821746e-01  4.9488863710990244e-01  8.3992476724126783e-02  3.9062548276137710e-01  4.9491890987528170e-01  1.9083503145306396e-01  0.0000000000000000e+00  7.7914903336231647e-02  8.4089567357610029e-02  9.1670838311955744e-02  1.9719637645538657e-01  2.0056314790867186e-01  7.0412646913719720e-02  2.7216170472226248e-01  8.6582393055111714e-02  0.0000000000000000e+00  1.0216412153660284e-01  7.9053199908709335e-02  1.7303768096423908e-01  7.9166382772023966e-02  4.1595214026408117e-01  4.5176538053711979e-01  4.6879106653580277e-01  4.7451712849829975e-01  4.0730187547017005e-01  1.1837222688177128e-01  4.5466731450415576e-01  8.9629366888273790e-02  3.9809754440116701e-01  3.5753611884094322e-01  2.5353211304813794e-01  2.6032405925865337e-01  4.2376266950121111e-01  3.7061589328106120e-01  1.6892964587966833e-01  2.4214223614470323e-01  3.0028339359781309e-01  3.4690555440284376e-01  3.0072864522784959e-01  0.0000000000000000e+00  2.4181779459105163e-01  1.4843366265805921e-01  9.1064405470335466e-02  2.2111113939298976e-01  1.2280653225751632e-01  2.3816830188067997e-01  2.8619191737900446e-01  3.0744390095573754e-01  3.0688607554167507e-01  0.0000000000000000e+00  0.0000000000000000e+00  7.9704883769111640e-02  8.3189039853809085e-02  7.9691074446249996e-02  3.7136942784847710e-01  3.9080060493478325e-01  3.2556220862744384e-01  3.9520524147482500e-01  8.5865705722057331e-02  1.7002112528323379e-01  0.0000000000000000e+00  7.8738976255256499e-02  4.8252484034124649e-01  2.8019451998668493e-01  1.5401404675642816e-01  3.2685008379257768e-01  3.4799123459798526e-01  4.1519281840749206e-01  2.2747174013519120e-01  4.2964961746629599e-01  8.6637711679935711e-02  2.8557365579394950e-01  0.0000000000000000e+00  2.6648256762435724e-01  3.0276795931212075e-01  8.1993235369704195e-02  4.8677666885572579e-01  7.7418666843382306e-02  4.0888494546424420e-01  4.7380554494952826e-01  4.7456334042898768e-01  4.9596843702680871e-01  2.5051750547253299e-01  3.3402477317921858e-01  4.2351604758327205e-01  4.3931342612658608e-01  0.0000000000000000e+00  2.6022600665141982e-01  2.3857157798938586e-01  1.4947100876255123e-01  3.5594939100547601e-01  1.0740881789102084e-01  4.0777676636597293e-01  3.3130479150038095e-01  2.0764509632240302e-01  3.0194402787334518e-01  4.9633907783299491e-01  4.7312845432112749e-01  3.4180723214738451e-01  1.8979900438637204e-01  3.3161453784322598e-01  2.5397010760638355e-01  2.2831077655508514e-01  0.0000000000000000e+00  4.3371609462836525e-01  3.6634947714845156e-01  2.4111479117884552e-01  7.3750349040933139e-02  1.6143996836953839e-01  1.9086636046788491e-01  7.4742089980597837e-02  7.3341313909244324e-02  3.7003012812553382e-01  3.5387326812406417e-01  0.0000000000000000e+00  4.4856645376517468e-01  2.4285471764482064e-01  0.0000000000000000e+00  6.8508881098512026e-02  7.5868935250941044e-02  1.7463068007155738e-01  3.9460229404980962e-01  2.6349936594546464e-01  2.1905108672501614e-01  4.1479710700379890e-01  1.6597528704741271e-01  2.1905072298062656e-01  4.1479900813919679e-01  3.8858896406600313e-01  1.6491406893179222e-01  4.7929225429448652e-01  0.0000000000000000e+00  3.6687288669464047e-01  4.5953854018276663e-01  2.7737200042161991e-01  4.5578246647130033e-01  1.9431393818717244e-01  4.4138292020620501e-01  4.3559922417617292e-01  7.1076674474044019e-02  1.5087370901353911e-01  1.8633750918003708e-01  1.7165288085087266e-01  6.8846392929109435e-02  4.4607273916674800e-01  6.4751317961421959e-02  6.8859496078131882e-02  0.0000000000000000e+00  1.6144217230473037e-01  1.4478085134160165e-01  6.8158510040696077e-02  4.8304304626989703e-01  1.5416085727511211e-01  7.4511401036748942e-02  1.9015349065805121e-01  6.7483816486424195e-02  1.5969428219719045e-01  2.7318550219079690e-01  1.4540792136488448e-01  2.6104246595453939e-01  2.9013512604058095e-01  4.6842387743849628e-01  1.3685874179366841e-01  3.4399930392713401e-01  3.8663626028855463e-01  3.4796343257820567e-01  2.8130288967856010e-01  2.6411957090526822e-01  3.0173195040156703e-01  3.3192132182935918e-01  2.5312242894265730e-01  1.8582085950654639e-01  6.9654807833970128e-02  3.9473598703762897e-01  6.8484492043529868e-02  4.5973459956414042e-01  0.0000000000000000e+00  4.0185980234018387e-01  1.4640830411251374e-01  3.9478024771248910e-01  6.2572888033628857e-02  2.3009205362120949e-01  1.9924742373347146e-01  4.4065827631022736e-01  2.8731168360781872e-01  6.7446093464372650e-02  4.3921285249064240e-01  3.3852325440127817e-01  3.1094669185000590e-01  2.6140814413412039e-01  2.7510192140113143e-01  3.1672759997603944e-01  1.7077697069800182e-01  1.7945434676376684e-01  3.0508622531485080e-01  4.4707991697757621e-01  6.1347087313587075e-02  4.7122567830024809e-01  4.3113643339807267e-01  1.4471944474732201e-01  6.0065910138122965e-02  2.9186062496553200e-01  2.3147647884112485e-01  3.1381658915536687e-01  3.9206266027443964e-01  6.9386906002811874e-02  0.0000000000000000e+00  6.9201630919838927e-02  1.3240439194834064e-01  4.1031208220215759e-01  1.6638718983026082e-01  1.4698313775295604e-01  2.4750526748688340e-01  3.9283663546355002e-01  1.8645377888539860e-01  7.2131321556831218e-02  0.0000000000000000e+00  1.7048542435663652e-01  4.1967135688793683e-01  3.9707802621042410e-01  1.7659302348897013e-01  1.2973850623819810e-01  2.0306660342036614e-01  6.8906968611721783e-02  0.0000000000000000e+00  6.2512791778724069e-02  2.6198803867586073e-01  3.2312872101231582e-01  0.0000000000000000e+00  0.0000000000000000e+00  1.8120191240736405e-01  3.1155772987146074e-01  1.1529637821198749e-01  0.0000000000000000e+00  4.8725748852743672e-01  4.9620686973335076e-01  4.0370067935802700e-01  1.2632032393780707e-01  0.0000000000000000e+00  4.9646702906915602e-01  3.1066120825426624e-01  0.0000000000000000e+00  0.0000000000000000e+00  0.0000000000000000e+00  0.0000000000000000e+00  0.0000000000000000e+00  0.0000000000000000e+00  0.0000000000000000e+00  0.0000000000000000e+00  0.0000000000000000e+00  0.0000000000000000e+00  0.0000000000000000e+00  0.0000000000000000e+00  0.0000000000000000e+00  0.0000000000000000e+00  0.0000000000000000e+00  0.0000000000000000e+00  0.0000000000000000e+00  0.0000000000000000e+00  0.0000000000000000e+00  0.0000000000000000e+00  0.0000000000000000e+00  0.0000000000000000e+00  0.0000000000000000e+00  0.0000000000000000e+00  0.0000000000000000e+00  0.0000000000000000e+00  2.0024148602820002e-01  6.1282963345835405e-02  2.5499674619952456e-01  </DataArray> 
</PointData> 
</Piece>
</UnstructuredGrid>
</VTKFile>