<?xml version="1.0"?>
<VTKFile type="UnstructuredGrid"  version="0.1"  >
<UnstructuredGrid>
<Piece  NumberOfPoints="3243" NumberOfCells="6301">
<Points>
<DataArray  type="Float64"  NumberOfComponents="3"  format="ascii">1 0 0  0.9987569212189223 0.04984588566069716 0  0.9950307753654014 0.09956784659581666 0  0.9888308262251285 0.1490422661761744 0  0.9801724878485438 0.1981461431993976 0  0.969077286229078 0.2467573976902936 0  0.9555728057861407 0.2947551744109042 0  0.9396926207859084 0.3420201433256687 0  0.9214762118704076 0.3884347962746947 0  0.9009688679024191 0.4338837391175581 0  0.8782215733702285 0.4782539786213182 0  0.8532908816321557 0.521435203379498 0  0.8262387743159949 0.5633200580636221 0  0.7971325072229225 0.6038044103254774 0  0.766044443118978 0.6427876096865393 0  0.7330518718298263 0.6801727377709194 0  0.6982368180860729 0.7158668492597184 0  0.6616858375968594 0.7497812029677342 0  0.6234898018587336 0.7818314824680298 0  0.58374367223479 0.8119380057158565 0  0.5425462638657594 0.8400259231507714 0  0.4999999999999999 0.8660254037844387 0  0.4562106573531631 0.8898718088114685 0  0.4112871031306117 0.9115058523116731 0  0.365341024366395 0.9308737486442042 0  0.3184866502516844 0.9479273461671317 0  0.2708404681430052 0.962624246950012 0  0.2225209339563144 0.9749279121818236 0  0.1736481776669304 0.984807753012208 0  0.1243437046474853 0.9922392066001721 0  0.07473009358642439 0.9972037971811801 0  0.02493069173807303 0.9996891820008162 0  -0.02493069173807291 0.9996891820008162 0  -0.07473009358642427 0.9972037971811801 0  -0.1243437046474852 0.9922392066001721 0  -0.1736481776669303 0.984807753012208 0  -0.2225209339563143 0.9749279121818236 0  -0.270840468143005 0.9626242469500121 0  -0.3184866502516843 0.9479273461671318 0  -0.3653410243663949 0.9308737486442044 0  -0.4112871031306114 0.9115058523116732 0  -0.4562106573531626 0.8898718088114688 0  -0.5000000000000002 0.8660254037844385 0  -0.5425462638657593 0.8400259231507715 0  -0.5837436722347896 0.8119380057158566 0  -0.6234898018587335 0.7818314824680299 0  -0.6616858375968592 0.7497812029677344 0  -0.6982368180860727 0.7158668492597186 0  -0.7330518718298263 0.6801727377709194 0  -0.7660444431189779 0.6427876096865395 0  -0.7971325072229225 0.6038044103254774 0  -0.8262387743159947 0.5633200580636223 0  -0.8532908816321556 0.5214352033794981 0  -0.8782215733702287 0.4782539786213181 0  -0.900968867902419 0.4338837391175582 0  -0.9214762118704077 0.3884347962746946 0  -0.9396926207859083 0.3420201433256689 0  -0.9555728057861406 0.2947551744109046 0  -0.9690772862290778 0.2467573976902938 0  -0.9801724878485438 0.1981461431993976 0  -0.9888308262251285 0.1490422661761747 0  -0.9950307753654014 0.09956784659581673 0  -0.9987569212189223 0.04984588566069748 0  -1 1.224646799147353e-16 0  -0.9987569212189223 -0.04984588566069723 0  -0.9950307753654014 -0.09956784659581648 0  -0.9888308262251285 -0.1490422661761745 0  -0.9801724878485439 -0.1981461431993974 0  -0.969077286229078 -0.2467573976902936 0  -0.9555728057861408 -0.2947551744109039 0  -0.9396926207859084 -0.3420201433256687 0  -0.9214762118704076 -0.3884347962746948 0  -0.9009688679024191 -0.433883739117558 0  -0.8782215733702288 -0.4782539786213179 0  -0.8532908816321557 -0.5214352033794979 0  -0.8262387743159949 -0.5633200580636221 0  -0.7971325072229226 -0.6038044103254772 0  -0.766044443118978 -0.6427876096865393 0  -0.7330518718298266 -0.6801727377709191 0  -0.6982368180860729 -0.7158668492597183 0  -0.6616858375968597 -0.749781202967734 0  -0.6234898018587337 -0.7818314824680297 0  -0.5837436722347905 -0.8119380057158559 0  -0.5425462638657592 -0.8400259231507715 0  -0.4999999999999996 -0.8660254037844388 0  -0.4562106573531632 -0.8898718088114684 0  -0.4112871031306116 -0.9115058523116731 0  -0.3653410243663957 -0.930873748644204 0  -0.318486650251685 -0.9479273461671316 0  -0.2708404681430046 -0.9626242469500123 0  -0.2225209339563146 -0.9749279121818236 0  -0.1736481776669303 -0.984807753012208 0  -0.1243437046474858 -0.992239206600172 0  -0.07473009358642473 -0.9972037971811801 0  -0.02493069173807316 -0.9996891820008162 0  0.02493069173807279 -0.9996891820008162 0  0.07473009358642436 -0.9972037971811801 0  0.1243437046474846 -0.9922392066001722 0  0.17364817766693 -0.9848077530122081 0  0.2225209339563142 -0.9749279121818236 0  0.2708404681430051 -0.962624246950012 0  0.3184866502516846 -0.9479273461671317 0  0.3653410243663945 -0.9308737486442045 0  0.4112871031306113 -0.9115058523116732 0  0.4562106573531629 -0.8898718088114687 0  0.5000000000000001 -0.8660254037844386 0  0.5425462638657597 -0.8400259231507713 0  0.5837436722347895 -0.8119380057158567 0  0.6234898018587334 -0.7818314824680299 0  0.6616858375968587 -0.7497812029677348 0  0.698236818086073 -0.7158668492597183 0  0.7330518718298266 -0.6801727377709191 0  0.7660444431189778 -0.6427876096865396 0  0.7971325072229224 -0.6038044103254775 0  0.8262387743159945 -0.5633200580636227 0  0.8532908816321558 -0.5214352033794979 0  0.8782215733702283 -0.4782539786213186 0  0.900968867902419 -0.4338837391175583 0  0.9214762118704076 -0.3884347962746947 0  0.9396926207859081 -0.3420201433256694 0  0.9555728057861406 -0.2947551744109047 0  0.9690772862290778 -0.246757397690294 0  0.9801724878485438 -0.1981461431993977 0  0.9888308262251285 -0.1490422661761744 0  0.9950307753654013 -0.09956784659581729 0  0.9987569212189223 -0.0498458856606976 0  0 -1.110223024625157e-16 0  -0.4060952245631048 0.2919625833433866 0  0.07454430279913359 0.4945691341012836 0  -0.3214937308814528 -0.3831413087744865 0  0.4060952245631052 -0.2919625833433861 0  0.4673719130775488 0.1970137823441975 0  0.07065575168974669 -0.5638195129952732 0  -0.5876518183134565 -0.07364232701738999 0  -0.2541979963622033 0.6030288969972762 0  0.4076207702370422 0.5262112245891383 0  0.6613130009878312 -0.07561785461588438 0  -0.2877924882763663 -0.08496671912316978 0  0.1122523041955583 -0.2722698749696852 0  -0.2136446684141768 -0.6649681138278456 0  0.3711239967993034 -0.5916870927688695 0  -0.6811618247539664 0.2288582017624023 0  -0.6036259983084502 -0.3898630043774365 0  -0.1519565356019055 0.3604834946258824 0  0.2223728889826192 0.7073349201016491 0  -0.5313477807263849 0.5182619981567066 0  0.6605018953341746 -0.3386195639300833 0  0.2873299503248539 -0.02875169806262802 0  0.1874625299482133 0.2355619893962034 0  0.7230148253408941 0.1735722145348512 0  -0.4549609197086589 -0.5957654959402137 0  -0.03463157487303079 0.7407085179683447 0  0.6291441987588993 0.406976916748466 0  -0.2289589159049669 0.1405285933300958 0  -0.08807616397075169 -0.392430403720013 0  0.205296612242771 -0.7458798537797463 0  -0.7547001834030465 -0.2123397074488059 0  -0.7837591992851975 0.01954573416024249 0  -0.01646532341657923 -0.7690653170628658 0  -0.4352401762958623 0.07855348178493107 0  0.2338185418859718 -0.4383564083763345 0  -0.4660907991281192 -0.2382969082541435 0  -0.07353959542582791 -0.189593951033018 0  -0.01634378184019994 0.2053797911459911 0  0.5767924862461576 -0.5348822709432305 0  0.4676013569319232 -0.1058100506567658 0  -0.4227737526629002 0.6918385751529503 0  0.3451218286438238 0.3448460222806342 0  -0.2417662837479932 0.783787041456639 0  0.7894336726564478 -0.2075150882455891 0  0.429437930868693 0.7027440193188219 0  0.5795530210908955 0.5802417886451888 0  0.818250434369694 0.01775696154863614 0  -0.09722442279153222 0.5263769109750763 0  -0.3089301091725765 0.4371354806480824 0  -0.7090524339547675 0.409371613613344 0  0.2438561876582929 0.4811936910778122 0  0.5432018434834983 0.04565923381603147 0  -0.3666591398357442 -0.7431965258712754 0  -0.5618207183878967 0.3397086085210991 0  -0.6185121444690291 -0.5572316488307958 0  -0.5977938369819751 0.08892586939414393 0  -0.2319369917805521 -0.2422716374480734 0  -0.2088517301748016 -0.8202123616008853 0  0.3674245052370875 -0.7539747860075445 0  0.5048967506413504 -0.6753011662259081 0  0.06820072641026245 0.3376857440261995 0  0.5825625451404475 -0.2068770910951368 0  -0.2093208387955752 -0.5017643152297908 0  0.4421364691493548 -0.4480702397503655 0  -0.06721994241050155 -0.6264082819342098 0  0.2198456810463068 -0.5890117939449101 0  0.1072482179998102 0.8270400658162729 0  0.101706945347264 0.1114338704246025 0  -0.826215081689274 0.1701570551503884 0  -0.7559016678791552 -0.3875281735895096 0  -0.1403081793782837 -0.05463656608767534 0  -0.4381435912761569 -0.0904638073416138 0  0.2648585596196462 -0.1972910845697012 0  0.1356675309518404 -0.09429826762197367 0  0.08800287638571841 -0.4175523043917539 0  0.772184265774069 0.3484228092971817 0  0.4820585818083429 0.3991084987153591 0  -0.6096551968804708 -0.2170872236035365 0  0.3980609174667186 0.06761537960865138 0  0.2429849976623634 0.1055167835565284 0  -0.4627258547488082 -0.3795349891758816 0  -0.5092671392521492 0.1973579212248526 0  0.7098874552164247 -0.4756664543534329 0  -0.3872144293666887 0.5549387157286028 0  0.007479912798405555 0.612104857903693 0  -0.1106088318060157 0.07657058882501411 0  -0.08645511997809778 0.8639888077054165 0  0.8546013271693483 0.1469869706377941 0  -0.7957961633846122 0.3035577340122536 0  -0.6516041046685823 0.5750440342764058 0  0.7950924905082843 -0.342029907248517 0  -0.8517730591837042 -0.1067410126442437 0  0.3279509223104274 0.7972989472436024 0  0.5615550327388615 0.2917503018191212 0  0.1039924397968217 -0.8490717333777242 0  -0.274352362125688 0.3088893272147279 0  -0.3199998995660726 -0.5804912223174621 0  0.3315659806484027 0.2091724322371269 0  -0.1325896474512148 0.6530104098458814 0  0.1376376998738423 0.6084703306290548 0  0.3241561268038429 0.6261409266958099 0  0.6961548279354922 0.5198857607104763 0  0.5313120496018447 -0.3261229251073059 0  -0.4541049825189052 0.4132022653064708 0  -0.544101644468135 0.646985081491446 0  0.5933756450024116 0.1654697377387106 0  0.6936465783424133 0.04861005800032081 0  0.1936093818855595 0.3634402114305412 0  -0.4937059030800814 
[...]
<PointData  Scalars="velocity-2"> 
<DataArray  type="Float64"  Name="velocity-2"  format="ascii">0.0000000000000000e+00  0.0000000000000000e+00  0.0000000000000000e+00  0.0000000000000000e+00  0.0000000000000000e+00  0.0000000000000000e+00  0.0000000000000000e+00  0.0000000000000000e+00  0.0000000000000000e+00  0.0000000000000000e+00  0.0000000000000000e+00  0.0000000000000000e+00  0.0000000000000000e+00  0.0000000000000000e+00  0.0000000000000000e+00  0.0000000000000000e+00  0.0000000000000000e+00  0.0000000000000000e+00  0.0000000000000000e+00  0.0000000000000000e+00  0.0000000000000000e+00  0.0000000000000000e+00  0.0000000000000000e+00  0.0000000000000000e+00  0.0000000000000000e+00  0.0000000000000000e+00  0.0000000000000000e+00  0.0000000000000000e+00  0.0000000000000000e+00  0.0000000000000000e+00  0.0000000000000000e+00  0.0000000000000000e+00  0.0000000000000000e+00  0.0000000000000000e+00  0.0000000000000000e+00  0.0000000000000000e+00  0.0000000000000000e+00  0.0000000000000000e+00  0.0000000000000000e+00  0.0000000000000000e+00  0.0000000000000000e+00  0.0000000000000000e+00  0.0000000000000000e+00  0.0000000000000000e+00  0.0000000000000000e+00  0.0000000000000000e+00  0.0000000000000000e+00  0.0000000000000000e+00  0.0000000000000000e+00  0.0000000000000000e+00  0.0000000000000000e+00  0.0000000000000000e+00  0.0000000000000000e+00  0.0000000000000000e+00  0.0000000000000000e+00  0.0000000000000000e+00  0.0000000000000000e+00  0.0000000000000000e+00  0.0000000000000000e+00  0.0000000000000000e+00  0.0000000000000000e+00  0.0000000000000000e+00  0.0000000000000000e+00  0.0000000000000000e+00  0.0000000000000000e+00  0.0000000000000000e+00  0.0000000000000000e+00  0.0000000000000000e+00  0.0000000000000000e+00  0.0000000000000000e+00  0.0000000000000000e+00  0.0000000000000000e+00  0.0000000000000000e+00  0.0000000000000000e+00  0.0000000000000000e+00  0.0000000000000000e+00  0.0000000000000000e+00  0.0000000000000000e+00  0.0000000000000000e+00  0.0000000000000000e+00  0.0000000000000000e+00  0.0000000000000000e+00  0.0000000000000000e+00  0.0000000000000000e+00  0.0000000000000000e+00  0.0000000000000000e+00  0.0000000000000000e+00  0.0000000000000000e+00  0.0000000000000000e+00  0.0000000000000000e+00  0.0000000000000000e+00  0.0000000000000000e+00  0.0000000000000000e+00  0.0000000000000000e+00  0.0000000000000000e+00  0.0000000000000000e+00  0.0000000000000000e+00  0.0000000000000000e+00  0.0000000000000000e+00  0.0000000000000000e+00  0.0000000000000000e+00  0.0000000000000000e+00  0.0000000000000000e+00  0.0000000000000000e+00  0.0000000000000000e+00  0.0000000000000000e+00  0.0000000000000000e+00  0.0000000000000000e+00  0.0000000000000000e+00  0.0000000000000000e+00  0.0000000000000000e+00  0.0000000000000000e+00  0.0000000000000000e+00  0.0000000000000000e+00  0.0000000000000000e+00  0.0000000000000000e+00  0.0000000000000000e+00  0.0000000000000000e+00  0.0000000000000000e+00  0.0000000000000000e+00  0.0000000000000000e+00  0.0000000000000000e+00  0.0000000000000000e+00  0.0000000000000000e+00  0.0000000000000000e+00  0.0000000000000000e+00  8.9732045605450372e-01  7.5108850646310166e-01  7.5103946468702831e-01  7.5026213573879896e-01  7.5142355931034510e-01  7.4499052499784357e-01  6.9177144005285029e-01  6.6724532564783678e-01  5.9675755953398801e-01  5.8374802111765467e-01  5.8354232368346459e-01  8.3732688241444209e-01  8.3893868974670172e-01  5.3996054600895393e-01  5.4070355274178405e-01  5.1215648506432432e-01  5.1195236970601121e-01  8.1442983702572280e-01  4.7931842645194661e-01  4.7794407129743866e-01  4.7703952698276492e-01  8.4019986440845473e-01  8.3766459610289479e-01  4.7620013327588073e-01  4.6713716273586176e-01  4.7992738298203474e-01  4.6846526005298494e-01  8.4146068592385848e-01  8.0940626138942140e-01  4.2921884511174008e-01  4.1378449018728747e-01  4.1357899811515814e-01  4.3571992224478007e-01  7.9027386056695137e-01  7.5338309717743468e-01  7.3175876229762260e-01  8.5605982360353439e-01  8.5585449636124711e-01  4.0782089737673760e-01  7.6706864676039677e-01  3.6781102569053059e-01  7.5927036284495653e-01  3.5381751002951334e-01  3.6054979262003045e-01  3.4720257389874593e-01  3.5297919795890759e-01  3.5629323835705157e-01  7.2315169622289099e-01  7.2211750805166164e-01  3.5606358028386059e-01  7.1825778526916184e-01  7.1382945519385510e-01  3.3869442141292028e-01  5.9486869805409048e-01  3.3152886878808607e-01  6.5510131728360077e-01  8.2983005127866127e-01  3.0711184613963555e-01  3.1993884752043389e-01  3.1256106793016430e-01  8.2918209871230353e-01  6.4006250873730586e-01  7.1540049956850338e-01  6.2724551443275178e-01  6.2574042222113013e-01  6.2832677232408785e-01  3.2947659648329214e-01  8.7109779803971132e-01  3.1242062990915614e-01  3.0221444629274685e-01  8.6898302480807366e-01  7.8673348377843089e-01  8.3158886061367343e-01  8.6598683362676876e-01  7.9872251637423020e-01  3.0704924797117555e-01  6.3016841547155966e-01  6.0632966505969732e-01  8.0860693266028105e-01  8.4400294905502427e-01  6.6116115539930242e-01  7.1324433797379794e-01  2.9218933003024739e-01  5.7095719573715031e-01  6.4689121270421068e-01  8.7480644152089315e-01  2.6737574194433117e-01  2.6959606578708439e-01  2.9863890442757840e-01  2.6665882353788173e-01  2.7204195875637699e-01  2.8511728345382786e-01  2.7820487818433770e-01  6.2296208997248692e-01  2.9195707825931499e-01  8.0643602748112586e-01  5.8633830393246977e-01  8.1343646494714339e-01  5.8267182652986638e-01  6.3416616353952537e-01  5.3133143127882698e-01  2.6632020896286340e-01  6.3448132183308303e-01  6.4474743398218859e-01  3.0984337157860414e-01  6.4154960709818976e-01  5.4464286987968458e-01  8.0581482782308755e-01  2.5936850521509525e-01  8.0138962570722028e-01  2.5229833892746389e-01  6.3435424819396857e-01  8.1505725767653148e-01  5.2015183589944514e-01  8.1041251663827185e-01  7.4466060572166182e-01  5.0762812012075409e-01  8.3194528652108746e-01  8.0417484718940246e-01  5.0626317867882376e-01  8.4863347580072335e-01  8.4291946328503320e-01  8.1399543185853096e-01  2.6183812665853207e-01  2.4161838402036245e-01  8.6312561927905707e-01  7.1861179000642905e-01  8.6215714711444658e-01  5.7387554645078265e-01  7.3745614446284502e-01  2.3881936054409655e-01  2.3180568576953256e-01  4.7438975620512064e-01  4.6356605373455345e-01  3.0388267207418168e-01  8.0178842679872064e-01  4.8854887330971769e-01  5.0358526797546166e-01  8.2281418831462283e-01  2.5101759370201793e-01  3.4314568273203444e-01  4.9015644456887120e-01  2.3154314168949233e-01  2.3585664924877381e-01  7.4769313543645133e-01  8.3288166575158951e-01  5.8815929116281718e-01  8.3653074871632271e-01  5.0461524731160479e-01  5.0330805315524008e-01  4.1495268174933658e-01  2.4123006297401525e-01  8.4846786976090005e-01  4.7004174399693660e-01  5.2530857648455365e-01  4.3560825073088866e-01  8.8394332174237011e-01  8.5110960033086114e-01  6.6126578043050410e-01  7.3427077641607619e-01  4.9612990051189448e-01  7.3227362056051848e-01  7.5275385657179539e-01  6.3610465293335694e-01  7.0915258818635063e-01  2.2828677102607672e-01  8.8400037509219132e-01  4.4316988658914874e-01  7.2341947593604816e-01  5.9389584046434452e-01  2.0431089782904530e-01  2.2393107354210529e-01  6.8394497041539959e-01  8.1376082531732319e-01  8.3301866145330428e-01  4.3187850408721101e-01  2.5404226372455491e-01  1.9660687808829239e-01  2.0373246464270586e-01  2.7880408590519035e-01  2.1004007810060810e-01  2.1664328840767316e-01  6.9782409472486606e-01  8.1217526311146204e-01  2.0707080288298613e-01  4.6017829187051440e-01  2.0669915004672820e-01  1.9222981293439184e-01  2.0605281138408407e-01  1.9132386748130367e-01  6.5274765592074169e-01  5.9455909672407103e-01  6.9697944081336272e-01  5.0497229688973277e-01  1.8906103433647209e-01  4.4131798404882189e-01  1.8628805045101388e-01  1.9632373178109611e-01  4.8672265178978313e-01  4.2352752837750995e-01  1.9960819538899854e-01  4.4373091246180763e-01  1.8793491310294999e-01  1.9104411521654138e-01  8.8610289818558430e-01  1.8320105718230964e-01  1.9150550097373428e-01  7.9190859201667230e-01  8.5144135802459331e-01  6.3489822431424470e-01  2.0193705517330701e-01  8.0022194318203799e-01  7.6894377191327534e-01  8.3188254660778560e-01  8.4817891538357049e-01  4.0124991652115982e-01  6.2797610953443461e-01  7.7373701357204350e-01  7.4586258776826797e-01  7.8225114590167866e-01  7.2867359478917715e-01  6.6097080008203812e-01  6.6185928357408952e-01  8.3225313442785220e-01  8.0417055365405998e-01  7.6727373128207266e-01  1.7632860147734553e-01  3.9564442057677912e-01  4.9744703983386968e-01  4.2591816140323235e-01  8.0012443586368187e-01  7.5727305001522671e-01  7.6580953760658022e-01  3.8782071395107925e-01  7.2521699909196458e-01  6.3820230105790632e-01  1.8206134214170375e-01  1.9525532279906763e-01  1.7927972159733058e-01  4.2215974762604130e-01  1.7855211402282228e-01  8.3405945580178587e-01  4.3448486108296702e-01  6.3267470838787643e-01  6.9910920335429561e-01  3.4623414670730229e-01  5.9072934026787627e-01  8.8749334577044492e-01  3.2964674943899813e-01  1.6431949962964001e-01  8.4756447041225080e-01  6.2213225366103841e-01  1.7650412982411121e-01  1.7647851241515564e-01  7.3342635495645780e-01  6.7660739102730694e-01  6.3512565270670207e-01  1.7105427888515415e-01  4.3741862651679519e-01  6.2252929511728194e-01  5.3312801284558520e-01  5.5094995169126615e-01  3.7525401307675704e-01  8.3612575102277387e-01  7.0017026587597975e-01  5.3179052440110741e-01  8.2729451768671436e-01  8.6083705654006215e-01  3.5418938851993820e-01  1.7097709456489621e-01  7.5653200684178135e-01  7.7614292467469459e-01  6.7748843202492182e-01  4.4092441734202531e-01  3.8126541775882089e-01  2.3729083541906246e-01  5.3780811122762728e-01  7.9545615636550537e-01  8.0189932537093456e-01  8.4391394402616948e-01  8.3180278301653865e-01  3.3908594614038112e-01  5.7711063774844495e-01  3.6270436037436343e-01  4.3419870640036695e-01  8.3694317898592174e-01  4.4627219058777062e-01  1.6901388774727572e-01  4.1947850781105694e-01  1.6296545203629204e-01  8.0167981544911604e-01  5.0511084391962413e-01  2.1868792662823353e-01  3.5871548765303418e-01  5.8447611892490037e-01  5.7384454027793286e-01  6.6659611082134629e-01  1.6835801857823296e-01  4.1149698269620905e-01  8.2655629139463027e-01  3.4510649375516955e-01  1.5593155109643997e-01  1.5179124900908872e-01  5.1207018753960865e-01  6.7284189959631069e-01  5.7323693388275698e-01  5.4264617123671022e-01  6.6711183873434909e-01  5.8382593435025421e-01  7.5801608114501695e-01  6.2828052421003111e-01  1.6744398199989807e-01  8.5044976167978026e-01  8.8953825049046864e-01  8.6851459340543535e-01  8.5090264863119724e-01  8.2149326396010880e-01  7.8106419558608742e-01  7.3510672034942226e-01  3.7913956329899390e-01  6.9395094429885240e-01  1.4921049405819359e-01  1.6338960045566062e-01  4.0137530708299668e-01  2.3046380872190922e-01  8.6888008805606642e-01  1.5835319107258058e-01  5.2828550368839244e-01  5.7438594774168061e-01  7.0219983226851546e-01  6.0628757274195699e-01  8.2477021064575529e-01  1.6895812589067047e-01  3.9279345091073037e-01  7.7085629439127668e-01  8.3488024391096027e-01  5.8401815453109462e-01  1.5828672160299800e-01  1.5285555193319511e-01  3.9048467857223979e-01  6.7533421887828060e-01  5.0944857916793085e-01  3.6533779255119925e-01  3.8381372593613927e-01  8.0656522763052740e-01  1.5280867958165176e-01  2.1502018780817628e-01  6.5513785930638080e-01  4.2707460741622255e-01  4.0268255224450245e-01  4.0116719140266621e-01  1.6022033760442120e-01  8.4170580044858523e-01  7.7755734179063940e-01  5.5460753085684400e-01  4.2802268144026223e-01  7.0637473266215556e-01  8.0801102787619516e-01  3.3172201587462141e-01  1.5046248561549258e-01  7.0829957901437324e-01  1.4266371318655932e-01  8.5866748853593811e-01  1.5208483760093294e-01  6.9873389933361751e-01  7.1358701866174745e-01  5.7843558363285164e-01  7.8421747027565503e-01  5.2043328163383062e-01  3.7280478503358933e-01  1.4382020793873174e-01  7.1963977270854718e-01  5.5352459360621287e-01  7.0851336262721298e-01  8.4955649333996341e-01  3.3469679994543960e-01  6.1464460765047657e-01  4.2139575279614494e-01  3.8093890186158430e-01  7.9350900920360357e-01  7.1570223140068645e-01  1.4794985545370257e-01  8.3060525818589426e-01  7.9578146084072887e-01  8.1484271092201288e-01  6.5565656386089366e-01  8.3358587183960731e-01  1.5178030160731376e-01  3.6535072579923655e-01  4.9350872685820296e-01  3.2063503767326490e-01  3.2639531298396635e-01  5.5015441448440017e-01  3.3899373592930448e-01  6.1537459336131428e-01  6.9241160565152315e-01  1.6529551617908650e-01  8.3869536772072295e-01  5.5683180979055669e-01  5.6446848213195011e-01  3.1391409779016116e-01  5.0831800139348116e-01  3.7064754934699495e-01  6.9529334817754151e-01  5.4637218097832685e-01  6.1300170825201339e-01  7.8122397286796352e-01  3.0621683206548533e-01  8.5765002623855935e-01  8.6695500319666785e-01  8.9119942715135270e-01  1.4053160034416512e-01  2.1191384527888452e-01  1.4717221642770559e-01  2.9171619646407226e-01  6.9754628215290249e-01  5.0468565265878462e-01  6.5616315299007588e-01  6.8850377758637982e-01  1.3956576182063210e-01  7.7925738678547596e-01  8.2716313737448288e-01  7.6588048025605393e-01  4.9773606715530133e-01  3.0275429763075284e-01  1.3344038776329617e-01  1.6819602825002949e-01  1.4497417064481755e-01  5.5694454965009044e-01  7.8469569781856907e-01  8.4486432059375194e-01  1.3975801945388894e-01  5.6278903563237859e-01  4.4335988597981507e-01  1.4000231994797135e-01  6.6271896216106052e-01  7.0696866367704514e-01  5.4902154283104410e-01  3.3818792759994942e-01  4.8395475920734721e-01  8.9180486542735982e-01  3.4249781949887942e-01  5.9388410246186829e-01  4.9399796567499776e-01  5.1105858224325373e-01  3.8038516379745713e-01  1.3235534820117084e-01  4.5913134536701833e-01  8.0998219477633815e-01  7.6911504069534342e-01  8.1838571918404657e-01  3.2148056008076870e-01  8.4927546787556019e-01  5.8885979285170997e-01  1.3855137506171178e-01  6.5751719811705511e-01  8.2568897650481576e-01  7.6913708761441157e-01  1.2534584878138230e-01  7.7280466709350304e-01  4.5865527953077867e-01  4.6931133555500665e-01  1.4014172162130023e-01  8.2984483563118461e-01  5.7831292128720746e-01  7.7662738997326985e-01  8.2067446226865137e-01  8.2639403059532412e-01  5.1389717629348142e-01  1.3249908000871455e-01  3.0766641815486279e-01  1.3624350213896086e-01  5.8954552092018664e-01  8.3229648652362098e-01  3.2965080332135410e-01  1.3284172336845163e-01  6.7959675613910997e-01  1.2552729612312216e-01  4.9603762331298262e-01  8.4480051615419449e-01  8.8057901565508379e-01  8.4874212418296580e-01  7.8102266407194731e-01  1.2154754947011207e-01  1.2421301559214774e-01  8.2916798218085241e-01  8.2487694647290011e-01  8.4349836434918668e-01  6.9781762260169100e-01  4.0024514434150327e-01  2.9606700000821512e-01  3.5213378044122862e-01  3.0014001598944900e-01  2.1302748908646846e-01  6.3616834068478634e-01  8.2543930611569927e-01  5.1013063210872622e-01  8.4790625571822653e-01  7.7838806939637373e-01  8.2920224293310729e-01  8.1460290542790881e-01  7.9000869015973629e-01  7.9137622993685419e-01  2.9729772938249310e-01  1.1733100643309083e-01  8.7175667205379503e-01  8.6022255211322152e-01  1.2077463043581503e-01  4.2990944792515640e-01  8.4293336148705356e-01  1.1730671564123928e-01  7.5663812837951328e-01  5.5996426535542687e-01  1.3526608928116501e-01  6.6038966152163725e-01  1.2302769844261723e-01  7.0879390397325548e-01  5.5860188265065391e-01  1.2913618960038264e-01  8.8360578137648937e-01  3.0855230976506354e-01  3.3839600426357447e-01  3.2471923160358346e-01  7.5091163463142530e-01  7.0311217054040542e-01  6.6558376640826999e-01  2.8095258319969335e-01  8.3695160035553273e-01  8.1928552611259087e-01  7.1014896067953348e-01  4.4643013744509141e-01  7.9904870885233537e-01  6.4955148528257856e-01  4.0301256743746605e-01  6.6206709730105906e-01  3.2418567572819545e-01  1.1699751940070968e-01  3.3695067059139755e-01  1.2467535546961366e-01  1.2002445788667764e-01  7.6690476362136051e-01  7.1847638672892744e-01  6.6362118190404595e-01  7.3307909876597910e-01  6.1598493395028664e-01  8.2356708453364269e-01  7.6902202015904886e-01  7.7355897598266443e-01  8.4083799606950549e-01  3.0340413759716411e-01  4.9511104290727748e-01  8.4885720869000225e-01  8.2612294692614263e-01  4.7216689524014349e-01  3.3006736517948221e-01  8.5202108307690705e-01  8.6553608616075350e-01  7.7141267364820254e-01  3.2490823179715200e-01  2.6224565660041926e-01  1.2596652519052434e-01  1.2522862955337399e-01  7.9447904250285595e-01  6.0493036848427906e-01  6.2744671013331910e-01  4.0803859288916555e-01  6.9871311777499623e-01  8.1715045268862818e-01  2.7121199926985129e-01  4.7537011447085264e-01  1.1407484593741517e-01  5.5138479561278353e-01  8.1935794220021685e-01  1.7138875080396287e-01  4.6414830022241027e-01  1.0821646630904472e-01  1.1680906139541823e-01  8.3845522703408637e-01  7.6155985533739756e-01  8.4368986853043137e-01  3.4553732433522927e-01  3.0680504737304831e-01  3.1449756835190174e-01  8.2290291926930204e-01  7.9332754611650280e-01  7.3231516231553240e-01  3.6842699748896357e-01  1.1016634880504339e-01  1.0695417636989610e-01  4.2785011394681416e-01  5.2507686610971882e-01  7.5372851171590627e-01  5.7420349325071729e-01  4.9613975251819248e-01  4.2361521398636121e-01  4.0654390188165257e-01  4.6279388361455387e-01  4.0132777483936521e-01  3.9193119523138137e-01  8.5559768527557623e-01  1.2426415573682940e-01  2.4728775797272950e-01  7.7423443675335901e-01  8.3284881256315779e-01  8.0749996456190232e-01  4.5118910600200524e-01  4.1995093629895475e-01  2.1198465510007963e-01  3.6217227876999486e-01  5.6193969460527471e-01  6.8823536502707650e-01  3.5664518843511483e-01  2.8404828042094243e-01  6.4449952720281500e-01  8.8046502476295585e-01  2.5157418164897621e-01  5.0430949809375003e-01  2.5408161763937176e-01  1.1477567422454410e-01  2.6574809047775100e-01  6.8337124334869526e-01  4.1572818434327685e-01  4.3324665957013786e-01  1.1917204843381382e-01  7.8395820257136617e-01  4.9911727472677192e-01  5.3648877238886250e-01  7.0387774379586288e-01  7.0787832730610523e-01  7.7621873600663005e-01  4.1768639918813166e-01  2.7732640313004009e-01  2.9915717144453358e-01  5.1621246458958348e-01  4.5127009379566363e-01  5.8639764624717627e-01  8.4272576074474470e-01  6.9785471312635838e-01  5.3521948453139856e-01  4.5258136952470612e-01  5.5012711495866695e-01  5.7899127049807153e-01  3.0218831508947719e-01  3.0889691102330308e-01  4.3752474255601681e-01  5.4554178187944857e-01  8.1285355866990783e-01  6.3815566489205033e-01  6.0075244722876942e-01  2.9255108746700170e-01  7.6706996362838931e-01  8.1926851710540161e-01  7.4385795396500620e-01  7.4331021490214411e-01  6.9132775551216696e-01  8.0417230175920418e-01  5.1164619850196458e-01  4.2527484358636591e-01  5.6950017448027679e-01  1.0568467524669140e-01  8.1050070213106440e-01  1.0688826605975339e-01  5.1844451499267519e-01  7.4912212606328532e-01  2.3145848043986275e-01  4.0558351923347274e-01  5.6286012159559640e-01  4.2636871748527971e-01  2.8927663776941787e-01  8.3993556651615298e-01  8.5223335576715009e-01  7.2187051629649612e-01  2.4018750232785885e-01  8.4130971214643180e-01  1.0843957350061881e-01  2.4773797751755247e-01  1.1199652518147059e-01  2.3611505485114720e-01  2.5210149770461360e-01  4.1767128179876994e-01  2.7266505881020681e-01  2.5866596114884183e-01  4.0659909857190779e-01  8.7210937780274700e-01  1.0816068819224194e-01  4.1367107618575971e-01  6.0145717298886181e-01  1.0438429267620133e-01  7.9444539891456589e-01  7.4125037105427138e-01  2.5376042623978035e-01  5.5709810142995964e-01  9.9818951641045248e-02  2.4394468521815560e-01  4.3951318027760122e-01  8.6048250842909668e-01  8.5598025057172722e-01  3.9326644989347781e-01  6.5124071153618723e-01  6.0992222805839880e-01  8.7629501915465891e-01  8.6883303673374568e-01  8.6056096044070629e-01  7.12911