<?xml version="1.0"?>
<VTKFile type="UnstructuredGrid"  version="0.1"  >
<UnstructuredGrid>
<Piece  NumberOfPoints="387" NumberOfCells="708">
<Points>
<DataArray  type="Float64"  NumberOfComponents="3"  format="ascii">0 3 0  0 -3 0  6 -3 0  6 3 0  3 -3 0  6 0 0  3 3 0  0 0 0  3 0 0  0 -1.5 0  1.5 -3 0  1.5 3 0  0 1.5 0  6 -1.5 0  4.5 -3 0  6 1.5 0  4.5 3 0  4.25 -1.25 0  1.75 1.25 0  2.25 -1.5 0  4.5 0.75 0  1.541666666666667 -0.2083333333333333 0  3.219827586206896 1.521551724137931 0  1.125 -1.875 0  4.875 1.875 0  0.8702651515151515 0.631628787878788 0  2.25 2.214285714285714 0  3.316176470588236 -1.904411764705882 0  5.214285714285714 -0.75 0  5.03125 -2.03125 0  0.96875 2.03125 0  4.041666666666667 -0.2083333333333333 0  0.8205128205128206 -0.9134615384615387 0  3.942582294752138 2.189194098250713 0  3.061487638533674 -0.968243819266837 0  2.192708333333333 0.4427083333333334 0  4.157850026972511 -2.182329047049442 0  2.331456616463011 -0.5285296485744057 0  3.654761904761905 0.5654761904761902 0  5.25 1.125 0  2.563673341677096 -2.280663329161452 0  5.126674107142857 0.1283482142857142 0  0.75 -3 0  0 -2.25 0  6 2.25 0  5.25 3 0  0.7680051888903191 -0.1384245958639337 0  1.617229471026718 -1.006949429867069 0  4.218940341429579 1.468686552856807 0  3.75 -3 0  2.25 -3 0  0.75 3 0  5.25 -3 0  6 -0.75 0  0 -0.75 0  0 0.75 0  2.25 3 0  6 -2.25 0  0 2.25 0  3.75 3 0  6 0.75 0  1.787573018358365 -2.279142327213878 0  3.195025188237337 2.273430909158844 0  2.528159645294386 1.151699106559287 0  1.041598427383826 1.322848427383826 0  1.520951704545454 0.4634232954545453 0  1.580357142857143 2.325892857142857 0  4.919642857142857 -1.361607142857143 0  4.54981623521892 -0.6483700862895494 0  2.99317863826574 0.6697091957925523 0  3.450169349029507 -0.4574865881858001 0  3.605016126014028 -1.323102984840902 0  2.745144658907412 1.882241931337371 0  0.4898065586600511 1.092777516238393 0  0.5 -1.875 0  1.217028489597945 -2.469323836800685 0  1.659912685567181 -1.604738056701542 0  5.4375 1.6875 0  5.34375 2.34375 0  4.52741779500503 2.384139265001677 0  3.375 -2.514804579549941 0  0.5446428571428571 -2.455357142857143 0  2.766554087216865 -1.745795909102064 0  4.525516559010988 0.1490283123570637 0  3.87554132162248 -0.8280516069565407 0  4.53622906132958 -1.76963146596888 0  0.4243951612903226 1.875 0  0.554851858345021 2.446861709948876 0  5.575604838709677 -1.875 0  5.445148141654979 -2.446861709948876 0  4.875 -2.575604838709677 0  1.440573466105381 1.721823466105381 0  2.193519495405082 1.631799415080963 0  5.472630128027442 -1.330813078900983 0  4.750126894286386 1.343813447143193 0  5.607142857142857 -0.375 0  2.625 2.607142857142857 0  0.3921763197810531 0.375 0  5.60901753622775 0.3750000000000001 0  1.125 2.613454943235572 0  3.701856738980915 1.163867513386733 0  3.736112850688509 1.696746876851408 0  3.519183195491339 0.06065128742606851 0  3.973620778217027 -1.693401606145563 0  0.8125 -1.444978632478633 0  1.256657745408029 -0.6381828923025001 0  0 -1.125 0  5.019997778514942 0.6475044429701156 0  4.125 3 0  1.285569332703024 0.8955310332120207 0  0 -0.375 0  0.4638922275641027 -0.5625 0  2.056635259780241 -0.07226025978024064 0  2.130475508371123 -1.000827820434028 0  2.677484372338113 -1.267299126394495 0  2.848680878891876 -0.4956836878192376 0  4.937901885089369 -0.3340245904575954 0  4.393563081308854 1.919544166973803 0  4.053859126323572 0.2813938488760716 0  1.181051704329518 0.1167440895674965 0  1.971354166666667 2.607142857142857 0  4.875 3 0  2.519350561152006 0.08093582719875507 0  3.139443301924015 -1.442524927271905 0  6 2.625 0  1.849169256239503 1.945480934753207 0  1.867196483071171 0.7892354369530077 0  1.192506522009051 -1.184888428863342 0  3.375 3 0  3.603234392481833 2.536866305538572 0  3.846752908916648 -2.537707634073423 0  2.014339897513945 -1.886932065281681 0  4.038392037966526 0.8363324773944992 0  4.421242701722609 -2.552534687860327 0  3.715389848650903 -2.108856956172843 0  2.985668138820625 1.127780908772207 0  0.4500794934449803 -1.173696061598557 0  3.366760888116476 0.8891914618875614 0  1.869163043700093 -0.6107175804171328 0  2.175114838273305 -2.53928723780967 0  3.014417665538299 -2.241523065744933 0  2.625 -3 0  2.819968145332426 -2.617202329573456 0  5.625 1.3125 0  5.563263538826679 0.814027077653358 0  5.625 3 0  2.550041671270923 0.7074928970804664 0  4.014583091741168 2.59891853892166 0  0.6440729668673318 1.499523832583132 0  5.219449799568244 -1.660557808485412 0  3.474012636702472 -0.9300738420779746 0  0.8125 -2.142857142857143 0  1.875 -3 0  4.945010515846405 2.554471797033147 0  2.611388969012422 -0.8478354915063726 0  3.223746055611014 0.3371683159691745 0  4.843939757110898 -0.9483610977948225 0  4.66556954816842 -2.220888354477256 0  4.125 -3 0  4.448108395110625 -0.2524000502731018 0  5.63671875 2.05078125 0  2.822484133964224 1.491327727709286 0  3.378213092764193 1.903125093887009 0  5.607142857142858 -0.9231200445788541 0  2.12639693023183 1.100450516019641 0  5.625 -3 0  0.375 3 0  0 2.625 0  6 -2.625 0  0.3931307155906299 -0.01856779822591927 0  0.7651723094668359 0.253768144801553 0  0.8549199714190221 -0.5218333744252657 0  1.421989550604507 -2.133299471886336 0  1.582611957351803 -2.615166692128227 0  4.420331038793115 1.133144382396504 0  0.375 -3 0  0 -2.625 0  5.078156723571596 1.54697017071479 0  1.877250715260938 -1.288801575378032 0  2.409169073010687 -1.916147168931784 0  1.146151077069952 -0.268000681695328 0  1.726784828652036 0.1335728643263411 0  2.745628549924675 0.3838821021397905 0  3.011490900297165 2.613625569196862 0  5.62463365164608 -4.137655439684362e-05 0  1.875 3 0  1.125 3 0  6 0.375 0  2.625 3 0  6 -1.125 0  6 -0.375 0  4.875 -3 0  6 -1.875 0  3.375 -3 0  1.125 -3 0  0 -1.875 0  0 0.375 0  0 1.125 0  0 1.875 0  6 1.125 0  6 1.875 0  4.813017731148975 0.9677363687196439 0  2.807371623148303 2.264962208227767 0  0.3692953377255688 0.7436406761680247 0  5.615625 2.615625 0  0.9395725521479794 0.9812935874921043 0  1.390920759130215 1.238984550166515 0  0.9588795022085095 1.672288500195331 0  0.87712392565124 -2.641031728267331 0  0.3665732993114588 -1.532068934251388 0  1.841944504733106 1.591700334213738 0  4.832970185136452 0.3385359233091246 0  4.169083540479082 -0.5746148619765254 0  5.281697083409333 -0.2046640461936881 0  4.072845380968044 1.784516523483641 0  1.293029195762321 -1.543079049035419 0  4.878733886054284 -1.720697370582964 0  3.609167475697567 -1.687579152754035 0  4.836981942878573 2.222259978217028 0  4.204938267037067 -0.9128589669335569 0  5.183079748175263 -1.111742407358677 0  1.22880920402559 2.273525645756405 0  1.469404041858679 2.654509729682302 0  4.566761045622856 -1.414165869120005 0  4.531680518427715 1.606803989975667 0  1.918929241273175 2.27471131819245 0  3.526908551984126 2.207147627530056 0  1.85683899811842 0.4533569963423589 0  1.173935704088662 0.4636872214645547 0  2.116602160898525 -2.207718541460878 0  4.51821874648995 -1.042568353750147 0  2.721551512787618 -0.1859357475290837 0  5.294921875 2.001953125 0  5.288671874999999 2.670703125 0  2.199940744527116 0.7756512213396931 0  4.090519467638897 1.163401080812838 0  2.298177083333333 2.670581371753247 0  2.484362362207526 -2.687319997637033 0  3.300530569898859 1.207053005217563 0  3.936078051808127 -1.362164062673065 0  5.341218841330105 0.5689885832563615 0  4.226314635599414 0.5638853401248238 0  2.524510956818563 1.635483567726497 0  0.3219546452225031 1.389066019009203 0  3.139061555368706 -0.3133905221155423 0  3.145569907612562 -0.6461828528638952 0  3.701427442033566 -0.2272880199383185 0  1.686782510365738 -1.934662341426927 0  2.427696494631844 1.944064773844184 0  3.901817839425732 1.422433381251312 0  2.356489883772755 -0.2025512972825912 0  4.820757576351118 -0.01647699434507374 0  3.064415631228375 1.809719380809516 0  4.643002705009462 2.69782572459795 0  4.31624250429496 2.728112685900672 0  1.520100694408069 -1.314302747998057 0  3.754559308601717 -0.5375020107416889 0  0.25 -2.0625 0  0.8125 -1.826636904761905 0  4.861738621091127 -0.6367294570749906 0  1.545149590740081 2.015832101819233 0  3.857113324620078 0.04127675193819436 0  0.2479605082936806 -0.9375 0  4.21293081604216 2.352874368135467 0  3.123697687162562 -2.708090473740421 0  3.415275466010259 -2.202892416689829 0  3.601103065320932 -2.727566580522146 0  1.558629964945672 -0.5289921609136927 0  3.324859026263307 -1.198136798699183 0  2.424350759683917 -1.092246517929194 0  2.746461744851735 0.9398108087856579 0  0.8882026075771248 2.364936378889839 0  0.8066140242673685 2.679750706449505 0  4.504454978490482 0.4491616076730165 0  4.26881784709759 -0.009649566552704852 0  1.3125 -2.75919801263958 0  1.120577805361368 -2.179971784090952 0  3.734048623985226 0.8602850349907256 0  3.527828882622877 1.432983527791925 0  1.959527908877504 -1.578124930685265 0  0.7602573574724077 1.220872343399509 0  0.6691217533356228 0.8531987603309893 0  1.877213035764122 -2.564340152892596 0  3.32172153715047 2.685939810104955 0  4.285565286275464 -1.569057178671076 0  4.227521511146333 -1.876903861267543 0  5.34375 1.40625 0  5.71875 1.59375 0  1.56245959534423 0.766197796710638 0  0.2458241530773257 2.4375 0  0.2794123857609179 2.138568368155198 0  5.754175846922674 -2.4375 0  5.720587614239082 -2.138568368155198 0  0.6472458227887359 2.124973059628837 0  5.124241021325378 -2.352544055105642 0  5.189172233440652 -2.675873509996353 0  5.364643151640443 -2.12768524739804 0  2.298896485720138 1.348573610321417 0  0.6008689899200503 -2.745193425346304 0  0.307092513690391 -2.651812055231556 0  0.2683745826107009 -2.363146293324415 0  0.5223214285714285 -2.165178571428571 0  0.3925308914031174 2.699891746740618 0  5.607469108596883 -2.699891746740618 0  2.138365140930822 1.917102089073091 0  1.25507379660067 1.953406658386351 0  4.135759889512124 -2.476847355718572 0  0.5330865684534913 -0.8980875812659357 0  2.548249345531056 -1.538893887888457 0  2.67686064875775
[...]
<PointData  Scalars="f_30-2"> 
<DataArray  type="Float64"  Name="f_30-2"  format="ascii">1.0000000000000000e+01  0.0000000000000000e+00  0.0000000000000000e+00  1.0000000000000000e+01  0.0000000000000000e+00  4.9999725515685309e+00  1.0000000000000000e+01  4.9999725515685309e+00  4.9999724223550945e+00  2.4999805187089428e+00  0.0000000000000000e+00  1.0000000000000000e+01  7.4999806362831869e+00  2.4999805187089428e+00  0.0000000000000000e+00  7.4999806362831869e+00  1.0000000000000000e+01  2.9166448575034858e+00  7.0833114510024524e+00  2.4999804359209317e+00  6.2499746250416335e+00  4.6527504105166102e+00  7.5359003064549750e+00  1.8749847193236635e+00  8.1249847184205048e+00  6.0526886402109357e+00  8.6904651672097657e+00  1.8259654740323090e+00  3.7499745272445195e+00  1.6145699455861744e+00  8.3854033269704811e+00  4.6527504539263616e+00  3.4775396635964313e+00  8.6486454807767696e+00  3.3862363057180414e+00  5.7378204545635612e+00  1.3627734728021526e+00  4.1190907626371311e+00  5.9424340287035591e+00  6.8749771219759541e+00  1.1988843183597417e+00  5.2138862251782152e+00  0.0000000000000000e+00  1.2499894405325538e+00  8.7499894929915083e+00  1.0000000000000000e+01  4.7692649232646227e+00  3.3217271213529402e+00  7.4477911510768653e+00  0.0000000000000000e+00  0.0000000000000000e+00  1.0000000000000000e+01  0.0000000000000000e+00  3.7499745676237777e+00  3.7499745676237777e+00  6.2499746623359034e+00  1.0000000000000000e+01  1.2499894405325538e+00  8.7499894929915083e+00  1.0000000000000000e+01  6.2499746623359034e+00  1.2014192887795683e+00  8.7890413028169263e+00  6.9194758447545768e+00  7.2047262081590384e+00  5.7723454258410003e+00  8.8764785630551941e+00  2.7306339082915860e+00  3.9193572119223230e+00  6.1161561647082285e+00  4.2374955861394348e+00  2.7948071648544572e+00  8.1370546897511620e+00  6.8212726782712716e+00  1.8749846872895832e+00  8.8445272204309466e-01  2.3254181405768697e+00  7.8124825288862914e+00  8.9062407712267841e+00  8.9735567226170225e+00  8.0865212042197043e-01  9.0773036303746646e-01  2.0903233561289261e+00  5.2483530731601853e+00  3.6198890672140296e+00  2.0505976816353182e+00  8.1249847240722826e+00  9.0780950024512244e+00  1.8749847166122038e+00  9.2188931216115111e-01  7.0731917796496702e-01  7.8696887214307525e+00  7.7196476347876288e+00  2.7819570506007905e+00  7.2396681196373374e+00  4.3749730318808338e+00  9.3452324974766174e+00  5.6249729614375203e+00  5.6249730561081277e+00  9.3557527102359188e+00  6.9397566994040920e+00  7.8278941269617217e+00  5.1010579857797858e+00  2.1776465621609762e+00  2.5916822622188476e+00  3.9363358549345082e+00  3.1249771054896014e+00  6.0791480977960495e+00  1.0000000000000000e+01  6.4925271214447537e+00  4.3749729937231985e+00  4.0624736729553064e+00  4.8795387234517582e+00  3.3319297546349880e+00  2.8878130402473543e+00  4.1738338834288333e+00  4.4432652574313503e+00  8.1992254954777160e+00  5.4689625707593414e+00  5.1945459902746434e+00  9.3452324679908276e+00  1.0000000000000000e+01  5.1348655548299993e+00  2.5957715931253440e+00  9.3749946426600577e+00  8.2424537819502355e+00  6.3153671396941986e+00  3.0251635104816521e+00  1.0000000000000000e+01  9.2281039193432228e+00  7.7048067441074064e-01  1.8550980719016350e+00  6.3938625669559261e+00  7.4576911828489278e-01  1.4852259941547310e+00  6.8796119801404920e+00  3.0438174001472618e+00  6.4819611825892887e+00  3.9821112236280096e+00  7.6784802401130059e-01  1.2641175411460408e+00  0.0000000000000000e+00  6.3799062324537725e-01  7.1874787521009997e+00  6.3566866408094889e+00  1.0000000000000000e+01  6.1791291599334066e+00  9.3315251704901314e+00  7.4991869906641817e+00  2.2323858762058797e+00  3.4498525621516412e+00  1.4285594657842686e+00  0.0000000000000000e+00  9.2574466542118614e+00  3.5869159413935057e+00  5.5619201621743901e+00  3.4193739848018083e+00  1.2985084767014747e+00  0.0000000000000000e+00  4.5793059418370916e+00  8.4179556300109084e+00  7.4855266767121007e+00  8.1718602146226420e+00  3.4614422793339230e+00  6.8340611783280281e+00  0.0000000000000000e+00  1.0000000000000000e+01  9.3749946426600577e+00  6.2499464618491107e-01  4.9690261548346824e+00  5.4229196292301420e+00  4.1302511439398639e+00  1.4444887676317089e+00  6.4138332919286600e-01  6.8885511266238320e+00  0.0000000000000000e+00  6.2499464618491107e-01  7.5782646367593731e+00  2.8519759055816838e+00  1.8064065998501071e+00  4.5533049373226238e+00  5.2225939541005832e+00  5.6397765464098049e+00  9.3560370953791185e+00  4.9999034967974660e+00  1.0000000000000000e+01  1.0000000000000000e+01  5.6249729613791883e+00  1.0000000000000000e+01  3.1249771054896014e+00  4.3749729937231985e+00  0.0000000000000000e+00  1.8749847063351481e+00  0.0000000000000000e+00  0.0000000000000000e+00  1.8749847063351481e+00  5.6249729613791883e+00  6.8749770779691568e+00  8.1249846948471145e+00  6.8749770779691568e+00  8.1249846948471145e+00  6.6128699135483933e+00  8.7749266726401611e+00  6.2393757813720763e+00  9.3593694903246334e+00  6.6354653765349489e+00  7.0649523852886782e+00  7.7871299134701113e+00  5.9827529690289138e-01  2.4465326297601404e+00  7.6528154213378734e+00  5.5641994496288625e+00  4.0422822702777950e+00  4.6588658626611146e+00  7.9741778631883982e+00  2.4281825315541048e+00  2.1321539466635926e+00  2.1873505915057785e+00  8.7037557392645688e+00  3.4785439444205788e+00  3.1470729836788736e+00  8.7891992111025878e+00  9.4241779245303103e+00  2.6430365623289385e+00  7.6779882992513322e+00  8.7911753636163645e+00  8.6785682932408807e+00  5.7555683110609230e+00  5.7727853349328067e+00  1.3204579734182229e+00  3.2623625322354779e+00  4.6900798237723995e+00  8.3365748208947235e+00  9.4511671532439969e+00  6.2927267379476124e+00  6.9389792652315982e+00  9.4509642403209249e+00  5.2112885113041441e-01  7.0117328492560826e+00  2.7297057439274308e+00  5.9482881334210136e+00  5.9397825972776825e+00  7.7257879027863678e+00  7.3150894429304758e+00  4.4776553665320575e+00  3.9230025978737313e+00  4.6211593478414796e+00  1.7755482113620848e+00  8.2400935808909459e+00  7.3707021038206362e+00  4.6623871432796191e+00  4.9725108857307685e+00  8.0161829317586690e+00  9.4963718820469349e+00  9.5468505820420173e+00  2.8094742201328375e+00  4.1041368088201606e+00  1.5624870518151901e+00  1.9555893165113452e+00  3.9387582296616039e+00  8.3597066593833347e+00  5.0687671222448296e+00  3.4374756926673671e+00  8.9214481265936243e+00  4.8651168896316493e-01  1.3285014784083482e+00  4.5405178216668751e-01  4.1183199775411437e+00  3.0030830388808298e+00  3.1795660373048604e+00  6.5663271546752311e+00  8.9415516613262245e+00  9.4662465979090253e+00  5.7485759800350191e+00  4.9838899078501795e+00  4.0133319016678470e-01  1.3667022312358847e+00  6.4337836083830595e+00  7.3882857240652866e+00  2.3697730826932415e+00  7.0347651737007313e+00  6.4219730992022761e+00  7.2609352271414795e-01  9.4765618496637583e+00  2.3848859443123755e+00  1.8718116628370414e+00  7.3437296764829592e+00  7.6562315104461840e+00  6.2769710438624111e+00  9.0624920016916111e+00  8.5642686693212244e+00  9.3749200556050583e-01  1.4357073906607207e+00  8.5416096150737353e+00  1.0790841127227457e+00  5.4020615690291363e-01  1.4538457324406693e+00  7.2476017474674777e+00  4.2467396398376278e-01  5.8030824168609341e-01  1.0614138130005342e+00  1.3913574058828735e+00  9.4998152842511150e+00  5.0017610424082859e-01  8.1951553689941310e+00  8.2556634349665110e+00  8.7191362489672997e-01  3.5031628136702291e+00  2.4351577055892153e+00  1.6371775666789539e+00  1.7767826344593478e+00  7.9682852155243280e+00  5.9074642979578567e+00  5.9927804382119714e+00  4.5014966725038335e+00  7.2716703715608562e+00  2.3795211870636699e+00  7.7683824012056508e+00  3.5365960006024133e-01  3.0225849124795245e+00  8.8942698286630240e+00  1.9257135480698817e+00  7.5806632595747105e+00  7.4634280216070090e+00  3.2238152978105568e+00  6.3954968986109764e+00  5.3559473844990908e+00  1.7083121060446185e+00  5.4705210091329812e+00  8.8860921576027927e+00  1.5305592667525965e+00  5.5978619687587612e+00  8.2651358050042081e+00  3.5019422726562133e+00  2.6899443432526806e+00  3.4327328726211548e-01  4.1854000458093230e+00  4.5348124969963006e+00  3.9182073484661557e+00  2.8124787491606331e+00  1.0206996698304294e+00  5.0985414234204320e+00  7.6823262839918831e+00  6.9816245463664961e+00  1.7192214746402954e+00  9.6726162224464396e+00  5.9542412171428696e+00  5.3124726451630364e+00  5.4899992743808887e+00  5.9374736338069143e+00  4.2749983659832891e+00  4.3907070552891647e-01  8.3760827582001216e+00  3.2943410730162342e-01  6.5624757480893310e+00  4.6909048658146419e+00  9.6821563794736836e+00  3.0367927008253313e+00  2.2736357249321268e+00  2.2736356787838701e+00  9.6777346332755823e+00  6.5624757290031566e+00  4.5854015467966533e+00  5.3254628974677356e+00  4.6728466967769746e+00  9.6722442143736327e+00  6.1792867116157826e+00  5.6553264041600952e+00  2.2825256539698522e+00  9.6850993262133880e+00  8.3911289162675171e+00  3.1779606307761226e+00  8.4609700415280606e+00  5.0702251418078710e+00  5.9130728137327404e+00  1.0123252307175317e+00  8.6713475628632750e+00  5.2940445283833109e+00  4.3646857218375423e+00  6.7314792602964708e+00  3.7415327785131307e+00  3.6977930144083566e+00  3.2820195601590578e+00  2.8951641268202457e+00  3.6523613479783821e+00  3.0301841882349230e+00  3.8222983571275044e+00  </DataArray> 
</PointData> 
</Piece>
</UnstructuredGrid>
</VTKFile>