<?xml version="1.0"?>
<VTKFile type="UnstructuredGrid"  version="0.1"  >
<UnstructuredGrid>
<Piece  NumberOfPoints="18071" NumberOfCells="35544">
<Points>
<DataArray  type="Float64"  NumberOfComponents="3"  format="ascii">0.9486832980505138 0 0  0.9484724340806782 0.02000104469955538 0  0.9478399359086995 0.03999319812908447 0  0.9467860847054931 0.0599675729710886 0  0.9453113489503684 0.07991528981136745 0  0.9434163842227721 0.09982748108627622 0  0.9411020329108563 0.119695295024715 0  0.938369323837003 0.1395098995830973 0  0.9352194718004709 0.1592624863715497 0  0.931653877037369 0.1789442745695953 0  0.9276741245981944 0.1985465148295827 0  0.9232819836432135 0.2180604931661231 0  0.9184794066559997 0.2374775348298079 0  0.9132685285754754 0.2567890081634844 0  0.9076516658468453 0.2759863284393749 0  0.9016313153918442 0.2950609616753339 0  0.8952101534987531 0.3140044284285474 0  0.8883910346326832 0.3328083075649862 0  0.8811769901666499 0.3514642400029395 0  0.873571227034005 0.3699639324289635 0  0.8655771263028276 0.3882991609845931 0  0.8571982416729006 0.4064617749221782 0  0.8484382978959503 0.4244437002282196 0  0.8393011891198424 0.4422369432125932 0  0.829790977157478 0.459833594062067 0  0.8199118896811526 0.477225830356532 0  0.8096683183431869 0.4944059205463824 0  0.7990648168236594 0.5113662273895018 0  0.7881060988061126 0.5280992113463244 0  0.7767970358821309 0.5445974339314641 0  0.7651426553857218 0.5608535610204205 0  0.753148138158463 0.5768603661098937 0  0.7408188162464108 0.5926107335302548 0  0.7281601705297891 0.6080976616087488 0  0.7151778282865192 0.6233142657820195 0  0.7018775606906669 0.6382537816565753 0  0.6882652802469232 0.652909568015835 0  0.6743470381622587 0.6672751097724156 0  0.6601290216559174 0.6813440208643511 0  0.6456175512089487 0.6951100470939552 0  0.6308190777544996 0.7085670689080622 0  0.6157401798101144 0.7217091041184169 0  0.6003875605533189 0.734530310560997 0  0.584768044841788 0.7470249886930909 0  0.5688885761794213 0.7591875841269735 0  0.5527562136296766 0.7710126900990562 0  0.5363781286775311 0.7824950498734097 0  0.5197616020414676 0.7936295590785962 0  0.5029140204369025 0.8044112679767674 0  0.4858428732924924 0.8148353836640227 0  0.4685557494207815 0.8248972722010478 0  0.4510603336446699 0.8345924606730875 0  0.4333644033811983 0.8439166391783361 0  0.4154758251841748 0.8528656627438631 0  0.3974025512471733 0.8614355531682203 0  0.379152615868464 0.8696225007899122 0  0.3607341318794444 0.8774228661809444 0  0.342155287038158 0.8848331817646961 0  0.3234243403895067 0.8918501533573969 0  0.3045496185937731 0.898470661632525 0  0.2855395122250832 0.904691763507473 0  0.2664024720414594 0.9105106934518669 0  0.2471470052281184 0.915924864716955 0  0.2277816716156831 0.9209318704855235 0  0.2083150798749952 0.925529484941822 0  0.1887558836902123 0.9297156642610294 0  0.1691127779118977 0.9334885475178156 0  0.1493944946918097 0.9368464575135985 0  0.1296097996011066 0.9397879015221259 0  0.1097674877336993 0.9423115719530522 0  0.08987637979647611 0.9444163469332154 0  0.06994531818814397 0.9461012908053551 0  0.04998316306842656 0.9473656545440494 0  0.02999878841936526 0.9482088760886865 0  0.01000107810047723 0.9486305805933245 0  -0.01000107810047732 0.9486305805933245 0  -0.02999878841936514 0.9482088760886865 0  -0.04998316306842644 0.9473656545440494 0  -0.06994531818814406 0.9461012908053551 0  -0.08987637979647599 0.9444163469332155 0  -0.1097674877336992 0.9423115719530522 0  -0.1296097996011065 0.9397879015221259 0  -0.1493944946918096 0.9368464575135985 0  -0.1691127779118979 0.9334885475178156 0  -0.1887558836902122 0.9297156642610294 0  -0.2083150798749951 0.925529484941822 0  -0.227781671615683 0.9209318704855235 0  -0.247147005228118 0.9159248647169551 0  -0.2664024720414591 0.9105106934518669 0  -0.2855395122250831 0.904691763507473 0  -0.3045496185937729 0.8984706616325251 0  -0.3234243403895066 0.8918501533573969 0  -0.3421552870381577 0.8848331817646962 0  -0.3607341318794441 0.8774228661809446 0  -0.3791526158684641 0.8696225007899122 0  -0.3974025512471734 0.8614355531682203 0  -0.4154758251841746 0.8528656627438632 0  -0.4333644033811984 0.8439166391783361 0  -0.4510603336446696 0.8345924606730876 0  -0.4685557494207815 0.8248972722010479 0  -0.4858428732924923 0.8148353836640227 0  -0.5029140204369026 0.8044112679767673 0  -0.5197616020414676 0.7936295590785962 0  -0.536378128677531 0.7824950498734098 0  -0.5527562136296768 0.7710126900990562 0  -0.5688885761794211 0.7591875841269737 0  -0.5847680448417879 0.747024988693091 0  -0.6003875605533187 0.7345303105609973 0  -0.6157401798101142 0.721709104118417 0  -0.6308190777544995 0.7085670689080623 0  -0.6456175512089487 0.6951100470939551 0  -0.6601290216559171 0.6813440208643513 0  -0.6743470381622587 0.6672751097724156 0  -0.688265280246923 0.6529095680158352 0  -0.7018775606906668 0.6382537816565753 0  -0.7151778282865192 0.6233142657820195 0  -0.7281601705297891 0.6080976616087488 0  -0.7408188162464107 0.592610733530255 0  -0.753148138158463 0.5768603661098938 0  -0.7651426553857216 0.5608535610204208 0  -0.7767970358821308 0.5445974339314642 0  -0.7881060988061125 0.5280992113463245 0  -0.7990648168236594 0.5113662273895018 0  -0.8096683183431868 0.4944059205463825 0  -0.8199118896811526 0.477225830356532 0  -0.8297909771574777 0.4598335940620675 0  -0.8393011891198424 0.4422369432125932 0  -0.8484382978959502 0.4244437002282198 0  -0.8571982416729006 0.4064617749221782 0  -0.8655771263028273 0.3882991609845933 0  -0.873571227034005 0.3699639324289636 0  -0.8811769901666499 0.3514642400029395 0  -0.8883910346326833 0.332808307564986 0  -0.8952101534987531 0.3140044284285475 0  -0.9016313153918442 0.295060961675334 0  -0.9076516658468452 0.2759863284393752 0  -0.9132685285754755 0.2567890081634842 0  -0.9184794066559997 0.237477534829808 0  -0.9232819836432135 0.218060493166123 0  -0.9276741245981943 0.1985465148295829 0  -0.931653877037369 0.1789442745695954 0  -0.9352194718004709 0.15926248637155 0  -0.938369323837003 0.1395098995830971 0  -0.9411020329108563 0.1196952950247151 0  -0.9434163842227721 0.09982748108627618 0  -0.9453113489503684 0.07991528981136768 0  -0.9467860847054931 0.05996757297108869 0  -0.9478399359086995 0.03999319812908442 0  -0.9484724340806782 0.02000104469955522 0  -0.9486832980505138 1.161801964362116e-16 0  -0.9484724340806782 -0.02000104469955541 0  -0.9478399359086995 -0.0399931981290842 0  -0.9467860847054931 -0.05996757297108847 0  -0.9453113489503684 -0.07991528981136745 0  -0.9434163842227721 -0.09982748108627594 0  -0.9411020329108563 -0.1196952950247148 0  -0.938369323837003 -0.1395098995830973 0  -0.935219471800471 -0.1592624863715494 0  -0.9316538770373691 -0.1789442745695952 0  -0.9276741245981944 -0.1985465148295827 0  -0.9232819836432136 -0.2180604931661228 0  -0.9184794066559998 -0.2374775348298077 0  -0.9132685285754755 -0.256789008163484 0  -0.9076516658468454 -0.2759863284393745 0  -0.9016313153918442 -0.2950609616753337 0  -0.8952101534987533 -0.3140044284285469 0  -0.8883910346326832 -0.3328083075649862 0  -0.8811769901666497 -0.3514642400029397 0  -0.8735712270340051 -0.3699639324289634 0  -0.8655771263028275 -0.3882991609845931 0  -0.8571982416729007 -0.406461774922178 0  -0.8484382978959503 -0.4244437002282196 0  -0.8393011891198425 -0.4422369432125929 0  -0.8297909771574781 -0.4598335940620669 0  -0.8199118896811529 -0.4772258303565314 0  -0.8096683183431871 -0.494405920546382 0  -0.7990648168236597 -0.5113662273895012 0  -0.7881060988061124 -0.5280992113463246 0  -0.7767970358821309 -0.544597433931464 0  -0.7651426553857217 -0.5608535610204206 0  -0.7531481381584632 -0.5768603661098936 0  -0.7408188162464108 -0.5926107335302547 0  -0.7281601705297893 -0.6080976616087486 0  -0.7151778282865193 -0.6233142657820193 0  -0.7018775606906672 -0.638253781656575 0  -0.6882652802469235 -0.6529095680158347 0  -0.674347038162259 -0.6672751097724151 0  -0.660129021655917 -0.6813440208643514 0  -0.6456175512089486 -0.6951100470939552 0  -0.6308190777544994 -0.7085670689080624 0  -0.6157401798101141 -0.7217091041184172 0  -0.6003875605533191 -0.7345303105609969 0  -0.5847680448417881 -0.7470249886930909 0  -0.5688885761794213 -0.7591875841269736 0  -0.5527562136296765 -0.7710126900990563 0  -0.5363781286775317 -0.7824950498734093 0  -0.519761602041468 -0.7936295590785959 0  -0.5029140204369028 -0.8044112679767672 0  -0.4858428732924925 -0.8148353836640226 0  -0.4685557494207817 -0.8248972722010478 0  -0.4510603336446699 -0.8345924606730875 0  -0.4333644033811982 -0.8439166391783361 0  -0.4154758251841745 -0.8528656627438633 0  -0.3974025512471736 -0.8614355531682203 0  -0.3791526158684643 -0.8696225007899121 0  -0.3607341318794445 -0.8774228661809444 0  -0.342155287038158 -0.8848331817646962 0  -0.3234243403895075 -0.8918501533573966 0  -0.3045496185937727 -0.8984706616325251 0  -0.2855395122250827 -0.9046917635074732 0  -0.2664024720414597 -0.9105106934518667 0  -0.2471470052281185 -0.915924864716955 0  -0.2277816716156832 -0.9209318704855235 0  -0.2083150798749951 -0.925529484941822 0  -0.1887558836902128 -0.9297156642610293 0  -0.1691127779118983 -0.9334885475178155 0  -0.14939449469181 -0.9368464575135985 0  -0.1296097996011069 -0.9397879015221258 0  -0.1097674877336994 -0.942311571953052 0  -0.08987637979647602 -0.9444163469332154 0  -0.06994531818814387 -0.9461012908053551 0  -0.04998316306842625 -0.9473656545440494 0  -0.02999878841936558 -0.9482088760886865 0  -0.01000107810047755 -0.9486305805933245 0  0.0100010781004772 -0.9486305805933245 0  0.02999878841936524 -0.9482088760886865 0  0.04998316306842591 -0.9473656545440494 0  0.06994531818814352 -0.9461012908053552 0  0.08987637979647567 -0.9444163469332155 0  0.1097674877336991 -0.9423115719530522 0  0.1296097996011066 -0.9397879015221259 0  0.1493944946918097 -0.9368464575135985 0  0.1691127779118979 -0.9334885475178156 0  0.1887558836902125 -0.929715
[...]
<PointData  Scalars="f_29-2"> 
<DataArray  type="Float64"  Name="f_29-2"  format="ascii">0.0000000000000000e+00  0.0000000000000000e+00  0.0000000000000000e+00  0.0000000000000000e+00  0.0000000000000000e+00  0.0000000000000000e+00  0.0000000000000000e+00  0.0000000000000000e+00  0.0000000000000000e+00  0.0000000000000000e+00  0.0000000000000000e+00  0.0000000000000000e+00  0.0000000000000000e+00  0.0000000000000000e+00  0.0000000000000000e+00  0.0000000000000000e+00  0.0000000000000000e+00  0.0000000000000000e+00  0.0000000000000000e+00  0.0000000000000000e+00  0.0000000000000000e+00  0.0000000000000000e+00  0.0000000000000000e+00  0.0000000000000000e+00  0.0000000000000000e+00  0.0000000000000000e+00  0.0000000000000000e+00  0.0000000000000000e+00  0.0000000000000000e+00  0.0000000000000000e+00  0.0000000000000000e+00  0.0000000000000000e+00  0.0000000000000000e+00  0.0000000000000000e+00  0.0000000000000000e+00  0.0000000000000000e+00  0.0000000000000000e+00  0.0000000000000000e+00  0.0000000000000000e+00  0.0000000000000000e+00  0.0000000000000000e+00  0.0000000000000000e+00  0.0000000000000000e+00  0.0000000000000000e+00  0.0000000000000000e+00  0.0000000000000000e+00  0.0000000000000000e+00  0.0000000000000000e+00  0.0000000000000000e+00  0.0000000000000000e+00  0.0000000000000000e+00  0.0000000000000000e+00  0.0000000000000000e+00  0.0000000000000000e+00  0.0000000000000000e+00  0.0000000000000000e+00  0.0000000000000000e+00  0.0000000000000000e+00  0.0000000000000000e+00  0.0000000000000000e+00  0.0000000000000000e+00  0.0000000000000000e+00  0.0000000000000000e+00  0.0000000000000000e+00  0.0000000000000000e+00  0.0000000000000000e+00  0.0000000000000000e+00  0.0000000000000000e+00  0.0000000000000000e+00  0.0000000000000000e+00  0.0000000000000000e+00  0.0000000000000000e+00  0.0000000000000000e+00  0.0000000000000000e+00  0.0000000000000000e+00  0.0000000000000000e+00  0.0000000000000000e+00  0.0000000000000000e+00  0.0000000000000000e+00  0.0000000000000000e+00  0.0000000000000000e+00  0.0000000000000000e+00  0.0000000000000000e+00  0.0000000000000000e+00  0.0000000000000000e+00  0.0000000000000000e+00  0.0000000000000000e+00  0.0000000000000000e+00  0.0000000000000000e+00  0.0000000000000000e+00  0.0000000000000000e+00  0.0000000000000000e+00  0.0000000000000000e+00  0.0000000000000000e+00  0.0000000000000000e+00  0.0000000000000000e+00  0.0000000000000000e+00  0.0000000000000000e+00  0.0000000000000000e+00  0.0000000000000000e+00  0.0000000000000000e+00  0.0000000000000000e+00  0.0000000000000000e+00  0.0000000000000000e+00  0.0000000000000000e+00  0.0000000000000000e+00  0.0000000000000000e+00  0.0000000000000000e+00  0.0000000000000000e+00  0.0000000000000000e+00  0.0000000000000000e+00  0.0000000000000000e+00  0.0000000000000000e+00  0.0000000000000000e+00  0.0000000000000000e+00  0.0000000000000000e+00  0.0000000000000000e+00  0.0000000000000000e+00  0.0000000000000000e+00  0.0000000000000000e+00  0.0000000000000000e+00  0.0000000000000000e+00  0.0000000000000000e+00  0.0000000000000000e+00  0.0000000000000000e+00  0.0000000000000000e+00  0.0000000000000000e+00  0.0000000000000000e+00  0.0000000000000000e+00  0.0000000000000000e+00  0.0000000000000000e+00  0.0000000000000000e+00  0.0000000000000000e+00  0.0000000000000000e+00  0.0000000000000000e+00  0.0000000000000000e+00  0.0000000000000000e+00  0.0000000000000000e+00  0.0000000000000000e+00  0.0000000000000000e+00  0.0000000000000000e+00  0.0000000000000000e+00  0.0000000000000000e+00  0.0000000000000000e+00  0.0000000000000000e+00  0.0000000000000000e+00  0.0000000000000000e+00  0.0000000000000000e+00  0.0000000000000000e+00  0.0000000000000000e+00  0.0000000000000000e+00  0.0000000000000000e+00  0.0000000000000000e+00  0.0000000000000000e+00  0.0000000000000000e+00  0.0000000000000000e+00  0.0000000000000000e+00  0.0000000000000000e+00  0.0000000000000000e+00  0.0000000000000000e+00  0.0000000000000000e+00  0.0000000000000000e+00  0.0000000000000000e+00  0.0000000000000000e+00  0.0000000000000000e+00  0.0000000000000000e+00  0.0000000000000000e+00  0.0000000000000000e+00  0.0000000000000000e+00  0.0000000000000000e+00  0.0000000000000000e+00  0.0000000000000000e+00  0.0000000000000000e+00  0.0000000000000000e+00  0.0000000000000000e+00  0.0000000000000000e+00  0.0000000000000000e+00  0.0000000000000000e+00  0.0000000000000000e+00  0.0000000000000000e+00  0.0000000000000000e+00  0.0000000000000000e+00  0.0000000000000000e+00  0.0000000000000000e+00  0.0000000000000000e+00  0.0000000000000000e+00  0.0000000000000000e+00  0.0000000000000000e+00  0.0000000000000000e+00  0.0000000000000000e+00  0.0000000000000000e+00  0.0000000000000000e+00  0.0000000000000000e+00  0.0000000000000000e+00  0.0000000000000000e+00  0.0000000000000000e+00  0.0000000000000000e+00  0.0000000000000000e+00  0.0000000000000000e+00  0.0000000000000000e+00  0.0000000000000000e+00  0.0000000000000000e+00  0.0000000000000000e+00  0.0000000000000000e+00  0.0000000000000000e+00  0.0000000000000000e+00  0.0000000000000000e+00  0.0000000000000000e+00  0.0000000000000000e+00  0.0000000000000000e+00  0.0000000000000000e+00  0.0000000000000000e+00  0.0000000000000000e+00  0.0000000000000000e+00  0.0000000000000000e+00  0.0000000000000000e+00  0.0000000000000000e+00  0.0000000000000000e+00  0.0000000000000000e+00  0.0000000000000000e+00  0.0000000000000000e+00  0.0000000000000000e+00  0.0000000000000000e+00  0.0000000000000000e+00  0.0000000000000000e+00  0.0000000000000000e+00  0.0000000000000000e+00  0.0000000000000000e+00  0.0000000000000000e+00  0.0000000000000000e+00  0.0000000000000000e+00  0.0000000000000000e+00  0.0000000000000000e+00  0.0000000000000000e+00  0.0000000000000000e+00  0.0000000000000000e+00  0.0000000000000000e+00  0.0000000000000000e+00  0.0000000000000000e+00  0.0000000000000000e+00  0.0000000000000000e+00  0.0000000000000000e+00  0.0000000000000000e+00  0.0000000000000000e+00  0.0000000000000000e+00  0.0000000000000000e+00  0.0000000000000000e+00  0.0000000000000000e+00  0.0000000000000000e+00  0.0000000000000000e+00  0.0000000000000000e+00  0.0000000000000000e+00  0.0000000000000000e+00  0.0000000000000000e+00  0.0000000000000000e+00  0.0000000000000000e+00  0.0000000000000000e+00  0.0000000000000000e+00  0.0000000000000000e+00  0.0000000000000000e+00  0.0000000000000000e+00  0.0000000000000000e+00  0.0000000000000000e+00  0.0000000000000000e+00  0.0000000000000000e+00  0.0000000000000000e+00  0.0000000000000000e+00  0.0000000000000000e+00  0.0000000000000000e+00  0.0000000000000000e+00  0.0000000000000000e+00  0.0000000000000000e+00  0.0000000000000000e+00  0.0000000000000000e+00  0.0000000000000000e+00  0.0000000000000000e+00  0.0000000000000000e+00  0.0000000000000000e+00  0.0000000000000000e+00  0.0000000000000000e+00  0.0000000000000000e+00  0.0000000000000000e+00  0.0000000000000000e+00  0.0000000000000000e+00  0.0000000000000000e+00  0.0000000000000000e+00  0.0000000000000000e+00  0.0000000000000000e+00  0.0000000000000000e+00  0.0000000000000000e+00  0.0000000000000000e+00  0.0000000000000000e+00  0.0000000000000000e+00  0.0000000000000000e+00  0.0000000000000000e+00  0.0000000000000000e+00  0.0000000000000000e+00  0.0000000000000000e+00  1.2448039479709854e+00  9.3402609948947846e-01  9.3395596313082696e-01  9.3397498497932463e-01  9.3400251037763615e-01  9.1309811264655449e-01  8.7944157632582820e-01  7.4863519400437217e-01  7.4856249034592381e-01  6.8539397938562152e-01  6.8226986507893672e-01  6.6177478961611058e-01  6.5326986617759231e-01  1.1272098815631835e+00  1.1272035340521620e+00  1.1397530344303384e+00  5.8101552120642552e-01  5.8097746921526039e-01  5.8516455407208490e-01  5.8098951927779119e-01  1.1410451902384455e+00  1.1198735717667558e+00  5.5750651111116922e-01  5.5850719728888776e-01  1.0836106811883213e+00  5.4579663832898240e-01  5.2833015329569954e-01  5.7049039851437577e-01  5.8361344729354137e-01  5.2599025921026310e-01  9.4086536401357823e-01  6.6093342922904663e-01  4.4251699116319088e-01  4.4252194030773134e-01  4.4635057858145211e-01  4.4252602160598076e-01  9.5212697676704150e-01  8.5853695044960765e-01  8.5845360853569097e-01  9.5622469054317405e-01  8.6444990534587940e-01  1.1956508936475239e+00  1.2002735024955986e+00  9.3448788335656152e-01  4.1049564726379034e-01  4.0132932640087682e-01  4.0905242522195917e-01  4.0229713124922967e-01  6.7730358841731220e-01  3.9906288565911002e-01  3.9940905609640548e-01  3.7991603280530278e-01  3.8853723339354562e-01  8.7761229151911635e-01  8.0352239066312237e-01  9.0847881504345951e-01  3.7829977373881246e-01  3.7793381294246092e-01  1.1147668202622072e+00  9.7049346930749170e-01  1.2119768773168400e+00  1.2063047789246104e+00  1.1908556236455181e+00  7.7472494876297338e-01  1.0944290676266513e+00  3.8867191307285931e-01  1.0415475185573217e+00  1.0869985854036537e+00  3.7473167512677735e-01  3.5675815340479949e-01  7.4959265326339009e-01  8.4038076067383738e-01  3.4942579408261881e-01  1.0868693315979641e+00  1.2151603347498723e+00  1.0371936544355120e+00  1.0263723512515901e+00  1.0583362671251439e+00  1.0317540649205716e+00  7.8332932002711564e-01  3.3363876651726376e-01  3.3058135135137717e-01  3.3050945394788223e-01  6.8944223743646960e-01  3.3122865609694196e-01  3.5298839157367179e-01  8.1085255266192025e-01  7.1346515658261944e-01  3.2041023639261595e-01  1.0207391897521523e+00  7.7378457153052871e-01  8.1624708005812874e-01  6.7459370317569112e-01  3.1180643483393067e-01  9.6040647867866180e-01  6.7561655710241053e-01  6.7557858251396763e-01  3.0972455626532880e-01  1.0245705486313914e+00  3.1063076667311229e-01  7.2978045809991698e-01  3.1096709427419661e-01  6.4441699863307123e-01  7.7776958381975381e-01  7.5056350439053843e-01  1.1466990307805600e+00  1.0511055141449679e+00  1.0308899444896755e+00  2.9773701526653623e-01  6.1771428098259007e-01  2.8513993262820109e-01  1.0139548115939654e+00  7.1898893332198355e-01  8.0440784090275697e-01  3.1181438816573431e-01  6.2330909585529448e-01  1.2019466137844947e+00  8.0938361918431168e-01  5.4716654801630038e-01  6.2871659543119296e-01  3.2849322806772413e-01  3.0658137987425071e-01  5.4505368087932027e-01  9.0136645737887522e-01  1.1403603059913736e+00  7.4643953739478019e-01  5.9411697272729924e-01  1.1336135620231274e+00  2.8087547158776882e-01  5.9773251473471467e-01  3.7434822042869087e-01  2.9258429656145984e-01  5.6551370296595971e-01  9.1147194129448472e-01  2.8290980836573359e-01  2.8590577679140278e-01  2.7221908795849192e-01  2.7120763986566149e-01  7.0546333284133611e-01  1.1999121744426846e+00  4.5398238794213602e-01  9.9262417661814961e-01  5.8564117721329412e-01  1.1240061875326737e+00  4.9815945195091577e-01  1.2309219905154256e+00  5.5554479808000268e-01  1.0604081519333435e+00  2.4612954543212190e-01  3.7399326854812748e-01  2.7114938450571258e-01  8.8735379193209851e-01  8.0698058769154657e-01  1.0533189714073992e+00  8.1968128377423621e-01  2.4517928600889144e-01  2.4682032801103168e-01  2.4016689231894806e-01  2.4007985005528520e-01  4.9911790766771519e-01  7.7600517786544865e-01  1.1593633176503177e+00  5.1592057646585110e-01  4.8051159085618028e-01  6.8526770254455760e-01  8.2012571210339247e-01  5.7410298832646378e-01  8.6251716840098525e-01  9.7859582475169204e-01  1.2321475683184002e+00  1.1622890269630479e+00  5.2599778239249950e-01  8.1000951174539371e-01  2.5192364133535367e-01  1.1339595106854004e+00  1.0561745214443670e+00  9.4287756237475273e-01  5.2446488446440120e-01  1.0359747244777293e+00  5.5065325232837026e-01  8.6457720687905437e-01  9.4648377101192371e-01  5.1345290574978597e-01  8.3491782655479951e-01  4.8372724456187027e-01  5.4969521687009537e-01  1.1594671710919306e+00  1.2323969009250590e+00  1.1659565725184837e+00  2.2526134227442021e-01  2.3431352193420688e-01  9.1539194062020013e-01  2.2663642761594710e-01  2.4498024222728618e-01  9.0008894441654042e-01  8.1088743226765747e-01  7.3350823990700331e-01  8.1084879943349963e-01  7.2269427563440281e-01  9.4084445668149130e-01  7.3299912536793133e-01  5.6245008480094527e-01  2.2756210724336862e-01  2.1829386446361895e-01  2.1863494500030323e-01  4.9605351045752483e-01  8.3898998314899198e-01  4.9759361541801567e-01  4.7895140885736504e-01  2.2047256286757161e-01  2.1914249265160618e-01  9.6622079681306072e-01  1.0532373841410438e+00  2.1869999020628617e-01  1.0351863915836423e+00  1.0296707627119968e+00  1.1127008950815223e+00  2.1089888135831683e-01  9.2789364129853413e-01  2.1602057436087585e-01  1.2350706694824121e+00  6.6316463459161956e-01  2.3532113184965961e-01  2.2333296998980079e-01  2.1129548425702369e-01  1.0131554410665544e+00  2.0757832586278110e-01  2.7356017234816454e-01  4.2127192549771852e-01  2.3008337940295454e-01  2.0618232616270488e-01  5.5727590992039810e-01  4.5100496634280363e-01  4.6671174674343707e-01  4.4666415603434245e-01  2.1594053003561905e-01  6.0108682747727049e-01  2.2437133981139656e-01  4.1647077705570040e-01  2.0214253817612718e-01  1.1736306192537969e+00  1.1934578575490358e+00  4.6108408235654591e-01  4.8265804157706133e-01  7.8987751046812460e-01  1.1942343760534964e+00  5.7305229039295003e-01  9.7733275146784959e-01  9.3318822172635285e-01  1.1705650818183380e+00  5.0933413161687935e-01  7.5297564383718452e-01  6.9166129600460513e-01  5.2339494594095981e-01  2.0236210312165906e-01  2.1230320795060129e-01  2.0217386959823788e-01  2.5135868073176310e-01  9.3710609268722578e-01  9.4046967707582385e-01  7.2144962675003532e-01  2.0691850552051971e-01  7.1401539496137167e-01  1.0470959925830381e+00  2.0238674469450557e-01  8.2371653087440377e-01  1.0905174838830398e+00  1.0855539549318660e+00  1.2138877059465001e+00  1.1456539716844922e+00  7.1491416383731143e-01  1.2366186733052205e+00  2.0636328915115426e-01  1.0996777171707128e+00  8.6754222257567459e-01  9.4873260479110311e-01  7.9535367597053652e-01  7.4814639296126073e-01  7.6616240752453824e-01  2.0786659983290520e-01  1.1290482919805802e+00  5.3781683658164992e-01  9.6486796870876768e-01  6.5861255950904096e-01  8.2273925162023087e-01  1.0249742311506449e+00  1.0270141834915520e+00  1.0997794959717508e+00  2.4736830302562060e-01  1.0846994255088618e+00  5.9968791601569771e-01  1.1522421897834720e+00  7.1186161227424039e-01  6.4991010008628503e-01  1.2325097986215943e+00  1.0124297143006624e+00  4.7951542753141874e-01  6.8781001199816727e-01  5.4711005857265005e-01  1.1764820987305942e+00  4.2644124481941292e-01  8.8254049282788194e-01  5.8682031786101074e-01  1.8870067850764738e-01  1.8485683461147628e-01  1.2052344989479007e+00  6.4802809495505920e-01  1.9625696554511687e-01  4.3558569038691752e-01  4.7178953803489293e-01  1.9504285447112116e-01  4.3348561878969677e-01  1.8916093930524264e-01  1.9246261488069108e-01  1.0937249883264530e+00  1.8346120310256606e-01  6.4038929911835873e-01  7.0028244748876467e-01  7.0907593864989482e-01  5.3455134088292133e-01  1.8176478457610257e-01  1.0307683517565265e+00  1.0260617296845602e+00  1.1049721055347894e+00  9.2889558515822301e-01  3.9834064106180689e-01  9.5531750636929702e-01  7.5812720587836568e-01  8.5655859857840966e-01  1.2230804678667984e+00  1.7907696741548446e-01  1.7962123362097970e-01  4.5337462463047956e-01  1.0012356085721714e+00  1.0917973449977607e+00  6.8463618440037100e-01  1.0108358528721320e+00  9.9170683724711273e-01  6.0517152909363958e-01  8.4192594811267119e-01  9.5643610261207135e-01  7.1476805215193850e-01  8.1930240697390921e-01  6.9559485778092178e-01  8.5691314485740000e-01  3.7959979908721142e-01  4.5948225114216340e-01  9.0102357090705931e-01  6.6093847478623091e-01  1.1729347759025657e+00  1.8350420418154434e-01  8.6913947631988187e-01  8.7465620822586432e-01  4.9349275017084071e-01  4.2390935797683615e-01  3.9475965430392523e-01  3.8165670275883135e-01  1.1780545903922708e+00  3.7027574011270303e-01  8.5468441264770367e-01  9.8711550535304937e-01  5.8937980925969402e-01  6.3162032163141302e-01  1.1057466262977236e+00  3.8736173903436338e-01  3.8063429505986374e-01  6.6657639157457993e-01  6.4361788871898529e-01  8.8668931501366466e-01  3.8822594154265772e-01  1.2180690043603435e+00  7.5808614724879986e-01  1.0140024911102499e+00  1.0971906962948930e+00  1.6619080627280255e-01  3.8364413824345200e-01  8.4204820449873974e-01  1.6911610312235431e-01  8.2811068030751456e-01  2.6126801311567383e-01  1.6957887795512971e-01  1.6494730661059359e-01  1.6914603493054076e-01  7.6501220060350983e-01  1.2388333421814384e+00  8.3812866955053800e-01  1.6997947226513466e-01  1.6242658424669579e-01  9.5647735464994377e-01  6.0963673728718548e-01  1.1662237324419884e+00  6.7858973024792735e-01  6.3231481078890861e-01  1.6613608562865007e-01  6.7954145212731043e-01  9.4232143785893219e-01  1.0871588557612895e+00  1.6594510696482781e-01  4.0708267856298225e-01  6.2985603099471943e-01  5.6221779872921207e-01  4.3633311005297404e-01  3.5983212091163702e-01  1.7292669237820835e-01  3.7398024636343397e-01  4.1807287814257976e-01  4.4059170435042377e-01  3.6722760457124831e-01  9.8345617979865396e-01  3.6835850154847366e-01  1.1372223965294146e+00  7.1486107341550886e-01  7.6452298479334491e-01  5.5987645465544644e-01  5.1868584323425204e-01  2.1411768110590207e-01  9.9288427309892957e-01  6.9400931993033288e-01  4.2863370192400307e-01  3.9744855692547826e-01  5.9955059579077796e-01  1.2216270117193913e+00  7.0727670463738079e-01  4.3581086572467542e-01  5.9242123917289613e-01  1.0491744251024786e+00  1.6522451964038451e-01  1.5740882928338834e-01  7.7353775339200703e-01  8.4530584114963359e-01  7.9097458141946986e-01  1.6116430063648804e-01  1.0766575621353316e+00  1.1816883613224638e+00  7.7875394172258305e-01  5.5606797838249955e-01  3.7714947285618344e-01  1.1295487320494071e+00  1.1873724866573532e+00  5.3494778241463947e-01  9.2084234428352285e-01  3.3487718963320268e-01  1.6005012490771983e-01  8.2417095976175370e-01  1.5236715043171978e-01  1.0999115183152994e+00  6.7645696828175150e-01  9.7882514775219143e-01  1.0486017226977797e+00  9.6976189390643042e-01  1.0846828073395585e+00  7.7979970021695999e-01  1.5484006261256217e-01  1.5676246277293085e-01  1.5972036673187204e-01  4.5415338947096739e-01  3.8289935487990340e-01  7.2133750849644873e-01  5.0322208591974593e-01  3.5411583030594340e-01  1.5667287163202570e-01  1.1950215299758780e+00  5.0733573628073025e-01  5.6653981221515226e-01  1.1595343220541456e+00  4.5829929830113592e-01  9.1120240911409367e-01  1.0776371335737949e+00  1.4854114718632164e-01  9.9593894929425453e-01  4.6159520678464494e-01  1.1677923728996502e+00  1.2146370338599681e+00  3.3584177969683088e-01  3.5597105004383411e-01  1.6246137941390637e-01  9.5539484061235636e-01  1.4512379496151151e-01  8.2251100048606063e-01  1.0682715749954617e+00  9.7910073326657077e-01  8.8679582240431021e-01  6.3614366684986567e-01  3.2830342647252309e-01  5.8491988036630094e-01  1.5185299980587874e-01  6.3192682743223338e-01  7.3944580963780460e-01  8.6059914898086720e-01  8.7782494099561581e-01  7.8610563337092532e-01  5.1397198412126832e-01  5.9139198488578015e-01  6.5248576575461836e-01  3.2604031340856215e-01  1.1000711863721462e+00  1.4325403631533457e-01  1.1446726246834897e+00  8.8673846812548274e-01  7.2801268926138740e-01  7.6996618957322771e-01  8.2098128539904036e-01  8.7918080620127326e-01  6.4577978991804619e-01  1.0843241421304197e+00  1.1657962128927764e+00  5.3482053704968047e-01  1.4667408099724730e-01  9.7609010123196671e-01  3.3739709953129038e-01  8.9190187314987679e-01  1.0999675978322172e+00  5.3816583755444081e-01  1.1364556320514652e+00  1.1955490084023321e+00  6.5730221938812472e-01  1.0352895687300752e+00  6.0961264987065245e-01  6.5209669658474823e-01  5.2035978342843781e-01  7.2082583134515132e-01  6.4202451881146994e-01  9.3751087272762557e-01  1.4932487533065952e-01  9.9405060420006774e-01  3.6611987810966173e-01  6.0659818108627894e-01  8.5083325137839760e-01  1.4928643376859052e-01  3.4589170533055980e-01  1.1925239780008074e+00  4.3208951310250