<?xml version="1.0"?>
<VTKFile type="UnstructuredGrid"  version="0.1"  >
<UnstructuredGrid>
<Piece  NumberOfPoints="18071" NumberOfCells="35544">
<Points>
<DataArray  type="Float64"  NumberOfComponents="3"  format="ascii">0.9486832980505138 0 0  0.9484724340806782 0.02000104469955538 0  0.9478399359086995 0.03999319812908447 0  0.9467860847054931 0.0599675729710886 0  0.9453113489503684 0.07991528981136745 0  0.9434163842227721 0.09982748108627622 0  0.9411020329108563 0.119695295024715 0  0.938369323837003 0.1395098995830973 0  0.9352194718004709 0.1592624863715497 0  0.931653877037369 0.1789442745695953 0  0.9276741245981944 0.1985465148295827 0  0.9232819836432135 0.2180604931661231 0  0.9184794066559997 0.2374775348298079 0  0.9132685285754754 0.2567890081634844 0  0.9076516658468453 0.2759863284393749 0  0.9016313153918442 0.2950609616753339 0  0.8952101534987531 0.3140044284285474 0  0.8883910346326832 0.3328083075649862 0  0.8811769901666499 0.3514642400029395 0  0.873571227034005 0.3699639324289635 0  0.8655771263028276 0.3882991609845931 0  0.8571982416729006 0.4064617749221782 0  0.8484382978959503 0.4244437002282196 0  0.8393011891198424 0.4422369432125932 0  0.829790977157478 0.459833594062067 0  0.8199118896811526 0.477225830356532 0  0.8096683183431869 0.4944059205463824 0  0.7990648168236594 0.5113662273895018 0  0.7881060988061126 0.5280992113463244 0  0.7767970358821309 0.5445974339314641 0  0.7651426553857218 0.5608535610204205 0  0.753148138158463 0.5768603661098937 0  0.7408188162464108 0.5926107335302548 0  0.7281601705297891 0.6080976616087488 0  0.7151778282865192 0.6233142657820195 0  0.7018775606906669 0.6382537816565753 0  0.6882652802469232 0.652909568015835 0  0.6743470381622587 0.6672751097724156 0  0.6601290216559174 0.6813440208643511 0  0.6456175512089487 0.6951100470939552 0  0.6308190777544996 0.7085670689080622 0  0.6157401798101144 0.7217091041184169 0  0.6003875605533189 0.734530310560997 0  0.584768044841788 0.7470249886930909 0  0.5688885761794213 0.7591875841269735 0  0.5527562136296766 0.7710126900990562 0  0.5363781286775311 0.7824950498734097 0  0.5197616020414676 0.7936295590785962 0  0.5029140204369025 0.8044112679767674 0  0.4858428732924924 0.8148353836640227 0  0.4685557494207815 0.8248972722010478 0  0.4510603336446699 0.8345924606730875 0  0.4333644033811983 0.8439166391783361 0  0.4154758251841748 0.8528656627438631 0  0.3974025512471733 0.8614355531682203 0  0.379152615868464 0.8696225007899122 0  0.3607341318794444 0.8774228661809444 0  0.342155287038158 0.8848331817646961 0  0.3234243403895067 0.8918501533573969 0  0.3045496185937731 0.898470661632525 0  0.2855395122250832 0.904691763507473 0  0.2664024720414594 0.9105106934518669 0  0.2471470052281184 0.915924864716955 0  0.2277816716156831 0.9209318704855235 0  0.2083150798749952 0.925529484941822 0  0.1887558836902123 0.9297156642610294 0  0.1691127779118977 0.9334885475178156 0  0.1493944946918097 0.9368464575135985 0  0.1296097996011066 0.9397879015221259 0  0.1097674877336993 0.9423115719530522 0  0.08987637979647611 0.9444163469332154 0  0.06994531818814397 0.9461012908053551 0  0.04998316306842656 0.9473656545440494 0  0.02999878841936526 0.9482088760886865 0  0.01000107810047723 0.9486305805933245 0  -0.01000107810047732 0.9486305805933245 0  -0.02999878841936514 0.9482088760886865 0  -0.04998316306842644 0.9473656545440494 0  -0.06994531818814406 0.9461012908053551 0  -0.08987637979647599 0.9444163469332155 0  -0.1097674877336992 0.9423115719530522 0  -0.1296097996011065 0.9397879015221259 0  -0.1493944946918096 0.9368464575135985 0  -0.1691127779118979 0.9334885475178156 0  -0.1887558836902122 0.9297156642610294 0  -0.2083150798749951 0.925529484941822 0  -0.227781671615683 0.9209318704855235 0  -0.247147005228118 0.9159248647169551 0  -0.2664024720414591 0.9105106934518669 0  -0.2855395122250831 0.904691763507473 0  -0.3045496185937729 0.8984706616325251 0  -0.3234243403895066 0.8918501533573969 0  -0.3421552870381577 0.8848331817646962 0  -0.3607341318794441 0.8774228661809446 0  -0.3791526158684641 0.8696225007899122 0  -0.3974025512471734 0.8614355531682203 0  -0.4154758251841746 0.8528656627438632 0  -0.4333644033811984 0.8439166391783361 0  -0.4510603336446696 0.8345924606730876 0  -0.4685557494207815 0.8248972722010479 0  -0.4858428732924923 0.8148353836640227 0  -0.5029140204369026 0.8044112679767673 0  -0.5197616020414676 0.7936295590785962 0  -0.536378128677531 0.7824950498734098 0  -0.5527562136296768 0.7710126900990562 0  -0.5688885761794211 0.7591875841269737 0  -0.5847680448417879 0.747024988693091 0  -0.6003875605533187 0.7345303105609973 0  -0.6157401798101142 0.721709104118417 0  -0.6308190777544995 0.7085670689080623 0  -0.6456175512089487 0.6951100470939551 0  -0.6601290216559171 0.6813440208643513 0  -0.6743470381622587 0.6672751097724156 0  -0.688265280246923 0.6529095680158352 0  -0.7018775606906668 0.6382537816565753 0  -0.7151778282865192 0.6233142657820195 0  -0.7281601705297891 0.6080976616087488 0  -0.7408188162464107 0.592610733530255 0  -0.753148138158463 0.5768603661098938 0  -0.7651426553857216 0.5608535610204208 0  -0.7767970358821308 0.5445974339314642 0  -0.7881060988061125 0.5280992113463245 0  -0.7990648168236594 0.5113662273895018 0  -0.8096683183431868 0.4944059205463825 0  -0.8199118896811526 0.477225830356532 0  -0.8297909771574777 0.4598335940620675 0  -0.8393011891198424 0.4422369432125932 0  -0.8484382978959502 0.4244437002282198 0  -0.8571982416729006 0.4064617749221782 0  -0.8655771263028273 0.3882991609845933 0  -0.873571227034005 0.3699639324289636 0  -0.8811769901666499 0.3514642400029395 0  -0.8883910346326833 0.332808307564986 0  -0.8952101534987531 0.3140044284285475 0  -0.9016313153918442 0.295060961675334 0  -0.9076516658468452 0.2759863284393752 0  -0.9132685285754755 0.2567890081634842 0  -0.9184794066559997 0.237477534829808 0  -0.9232819836432135 0.218060493166123 0  -0.9276741245981943 0.1985465148295829 0  -0.931653877037369 0.1789442745695954 0  -0.9352194718004709 0.15926248637155 0  -0.938369323837003 0.1395098995830971 0  -0.9411020329108563 0.1196952950247151 0  -0.9434163842227721 0.09982748108627618 0  -0.9453113489503684 0.07991528981136768 0  -0.9467860847054931 0.05996757297108869 0  -0.9478399359086995 0.03999319812908442 0  -0.9484724340806782 0.02000104469955522 0  -0.9486832980505138 1.161801964362116e-16 0  -0.9484724340806782 -0.02000104469955541 0  -0.9478399359086995 -0.0399931981290842 0  -0.9467860847054931 -0.05996757297108847 0  -0.9453113489503684 -0.07991528981136745 0  -0.9434163842227721 -0.09982748108627594 0  -0.9411020329108563 -0.1196952950247148 0  -0.938369323837003 -0.1395098995830973 0  -0.935219471800471 -0.1592624863715494 0  -0.9316538770373691 -0.1789442745695952 0  -0.9276741245981944 -0.1985465148295827 0  -0.9232819836432136 -0.2180604931661228 0  -0.9184794066559998 -0.2374775348298077 0  -0.9132685285754755 -0.256789008163484 0  -0.9076516658468454 -0.2759863284393745 0  -0.9016313153918442 -0.2950609616753337 0  -0.8952101534987533 -0.3140044284285469 0  -0.8883910346326832 -0.3328083075649862 0  -0.8811769901666497 -0.3514642400029397 0  -0.8735712270340051 -0.3699639324289634 0  -0.8655771263028275 -0.3882991609845931 0  -0.8571982416729007 -0.406461774922178 0  -0.8484382978959503 -0.4244437002282196 0  -0.8393011891198425 -0.4422369432125929 0  -0.8297909771574781 -0.4598335940620669 0  -0.8199118896811529 -0.4772258303565314 0  -0.8096683183431871 -0.494405920546382 0  -0.7990648168236597 -0.5113662273895012 0  -0.7881060988061124 -0.5280992113463246 0  -0.7767970358821309 -0.544597433931464 0  -0.7651426553857217 -0.5608535610204206 0  -0.7531481381584632 -0.5768603661098936 0  -0.7408188162464108 -0.5926107335302547 0  -0.7281601705297893 -0.6080976616087486 0  -0.7151778282865193 -0.6233142657820193 0  -0.7018775606906672 -0.638253781656575 0  -0.6882652802469235 -0.6529095680158347 0  -0.674347038162259 -0.6672751097724151 0  -0.660129021655917 -0.6813440208643514 0  -0.6456175512089486 -0.6951100470939552 0  -0.6308190777544994 -0.7085670689080624 0  -0.6157401798101141 -0.7217091041184172 0  -0.6003875605533191 -0.7345303105609969 0  -0.5847680448417881 -0.7470249886930909 0  -0.5688885761794213 -0.7591875841269736 0  -0.5527562136296765 -0.7710126900990563 0  -0.5363781286775317 -0.7824950498734093 0  -0.519761602041468 -0.7936295590785959 0  -0.5029140204369028 -0.8044112679767672 0  -0.4858428732924925 -0.8148353836640226 0  -0.4685557494207817 -0.8248972722010478 0  -0.4510603336446699 -0.8345924606730875 0  -0.4333644033811982 -0.8439166391783361 0  -0.4154758251841745 -0.8528656627438633 0  -0.3974025512471736 -0.8614355531682203 0  -0.3791526158684643 -0.8696225007899121 0  -0.3607341318794445 -0.8774228661809444 0  -0.342155287038158 -0.8848331817646962 0  -0.3234243403895075 -0.8918501533573966 0  -0.3045496185937727 -0.8984706616325251 0  -0.2855395122250827 -0.9046917635074732 0  -0.2664024720414597 -0.9105106934518667 0  -0.2471470052281185 -0.915924864716955 0  -0.2277816716156832 -0.9209318704855235 0  -0.2083150798749951 -0.925529484941822 0  -0.1887558836902128 -0.9297156642610293 0  -0.1691127779118983 -0.9334885475178155 0  -0.14939449469181 -0.9368464575135985 0  -0.1296097996011069 -0.9397879015221258 0  -0.1097674877336994 -0.942311571953052 0  -0.08987637979647602 -0.9444163469332154 0  -0.06994531818814387 -0.9461012908053551 0  -0.04998316306842625 -0.9473656545440494 0  -0.02999878841936558 -0.9482088760886865 0  -0.01000107810047755 -0.9486305805933245 0  0.0100010781004772 -0.9486305805933245 0  0.02999878841936524 -0.9482088760886865 0  0.04998316306842591 -0.9473656545440494 0  0.06994531818814352 -0.9461012908053552 0  0.08987637979647567 -0.9444163469332155 0  0.1097674877336991 -0.9423115719530522 0  0.1296097996011066 -0.9397879015221259 0  0.1493944946918097 -0.9368464575135985 0  0.1691127779118979 -0.9334885475178156 0  0.1887558836902125 -0.929715
[...]
<PointData  Scalars="f_29-2"> 
<DataArray  type="Float64"  Name="f_29-2"  format="ascii">0.0000000000000000e+00  0.0000000000000000e+00  0.0000000000000000e+00  0.0000000000000000e+00  0.0000000000000000e+00  0.0000000000000000e+00  0.0000000000000000e+00  0.0000000000000000e+00  0.0000000000000000e+00  0.0000000000000000e+00  0.0000000000000000e+00  0.0000000000000000e+00  0.0000000000000000e+00  0.0000000000000000e+00  0.0000000000000000e+00  0.0000000000000000e+00  0.0000000000000000e+00  0.0000000000000000e+00  0.0000000000000000e+00  0.0000000000000000e+00  0.0000000000000000e+00  0.0000000000000000e+00  0.0000000000000000e+00  0.0000000000000000e+00  0.0000000000000000e+00  0.0000000000000000e+00  0.0000000000000000e+00  0.0000000000000000e+00  0.0000000000000000e+00  0.0000000000000000e+00  0.0000000000000000e+00  0.0000000000000000e+00  0.0000000000000000e+00  0.0000000000000000e+00  0.0000000000000000e+00  0.0000000000000000e+00  0.0000000000000000e+00  0.0000000000000000e+00  0.0000000000000000e+00  0.0000000000000000e+00  0.0000000000000000e+00  0.0000000000000000e+00  0.0000000000000000e+00  0.0000000000000000e+00  0.0000000000000000e+00  0.0000000000000000e+00  0.0000000000000000e+00  0.0000000000000000e+00  0.0000000000000000e+00  0.0000000000000000e+00  0.0000000000000000e+00  0.0000000000000000e+00  0.0000000000000000e+00  0.0000000000000000e+00  0.0000000000000000e+00  0.0000000000000000e+00  0.0000000000000000e+00  0.0000000000000000e+00  0.0000000000000000e+00  0.0000000000000000e+00  0.0000000000000000e+00  0.0000000000000000e+00  0.0000000000000000e+00  0.0000000000000000e+00  0.0000000000000000e+00  0.0000000000000000e+00  0.0000000000000000e+00  0.0000000000000000e+00  0.0000000000000000e+00  0.0000000000000000e+00  0.0000000000000000e+00  0.0000000000000000e+00  0.0000000000000000e+00  0.0000000000000000e+00  0.0000000000000000e+00  0.0000000000000000e+00  0.0000000000000000e+00  0.0000000000000000e+00  0.0000000000000000e+00  0.0000000000000000e+00  0.0000000000000000e+00  0.0000000000000000e+00  0.0000000000000000e+00  0.0000000000000000e+00  0.0000000000000000e+00  0.0000000000000000e+00  0.0000000000000000e+00  0.0000000000000000e+00  0.0000000000000000e+00  0.0000000000000000e+00  0.0000000000000000e+00  0.0000000000000000e+00  0.0000000000000000e+00  0.0000000000000000e+00  0.0000000000000000e+00  0.0000000000000000e+00  0.0000000000000000e+00  0.0000000000000000e+00  0.0000000000000000e+00  0.0000000000000000e+00  0.0000000000000000e+00  0.0000000000000000e+00  0.0000000000000000e+00  0.0000000000000000e+00  0.0000000000000000e+00  0.0000000000000000e+00  0.0000000000000000e+00  0.0000000000000000e+00  0.0000000000000000e+00  0.0000000000000000e+00  0.0000000000000000e+00  0.0000000000000000e+00  0.0000000000000000e+00  0.0000000000000000e+00  0.0000000000000000e+00  0.0000000000000000e+00  0.0000000000000000e+00  0.0000000000000000e+00  0.0000000000000000e+00  0.0000000000000000e+00  0.0000000000000000e+00  0.0000000000000000e+00  0.0000000000000000e+00  0.0000000000000000e+00  0.0000000000000000e+00  0.0000000000000000e+00  0.0000000000000000e+00  0.0000000000000000e+00  0.0000000000000000e+00  0.0000000000000000e+00  0.0000000000000000e+00  0.0000000000000000e+00  0.0000000000000000e+00  0.0000000000000000e+00  0.0000000000000000e+00  0.0000000000000000e+00  0.0000000000000000e+00  0.0000000000000000e+00  0.0000000000000000e+00  0.0000000000000000e+00  0.0000000000000000e+00  0.0000000000000000e+00  0.0000000000000000e+00  0.0000000000000000e+00  0.0000000000000000e+00  0.0000000000000000e+00  0.0000000000000000e+00  0.0000000000000000e+00  0.0000000000000000e+00  0.0000000000000000e+00  0.0000000000000000e+00  0.0000000000000000e+00  0.0000000000000000e+00  0.0000000000000000e+00  0.0000000000000000e+00  0.0000000000000000e+00  0.0000000000000000e+00  0.0000000000000000e+00  0.0000000000000000e+00  0.0000000000000000e+00  0.0000000000000000e+00  0.0000000000000000e+00  0.0000000000000000e+00  0.0000000000000000e+00  0.0000000000000000e+00  0.0000000000000000e+00  0.0000000000000000e+00  0.0000000000000000e+00  0.0000000000000000e+00  0.0000000000000000e+00  0.0000000000000000e+00  0.0000000000000000e+00  0.0000000000000000e+00  0.0000000000000000e+00  0.0000000000000000e+00  0.0000000000000000e+00  0.0000000000000000e+00  0.0000000000000000e+00  0.0000000000000000e+00  0.0000000000000000e+00  0.0000000000000000e+00  0.0000000000000000e+00  0.0000000000000000e+00  0.0000000000000000e+00  0.0000000000000000e+00  0.0000000000000000e+00  0.0000000000000000e+00  0.0000000000000000e+00  0.0000000000000000e+00  0.0000000000000000e+00  0.0000000000000000e+00  0.0000000000000000e+00  0.0000000000000000e+00  0.0000000000000000e+00  0.0000000000000000e+00  0.0000000000000000e+00  0.0000000000000000e+00  0.0000000000000000e+00  0.0000000000000000e+00  0.0000000000000000e+00  0.0000000000000000e+00  0.0000000000000000e+00  0.0000000000000000e+00  0.0000000000000000e+00  0.0000000000000000e+00  0.0000000000000000e+00  0.0000000000000000e+00  0.0000000000000000e+00  0.0000000000000000e+00  0.0000000000000000e+00  0.0000000000000000e+00  0.0000000000000000e+00  0.0000000000000000e+00  0.0000000000000000e+00  0.0000000000000000e+00  0.0000000000000000e+00  0.0000000000000000e+00  0.0000000000000000e+00  0.0000000000000000e+00  0.0000000000000000e+00  0.0000000000000000e+00  0.0000000000000000e+00  0.0000000000000000e+00  0.0000000000000000e+00  0.0000000000000000e+00  0.0000000000000000e+00  0.0000000000000000e+00  0.0000000000000000e+00  0.0000000000000000e+00  0.0000000000000000e+00  0.0000000000000000e+00  0.0000000000000000e+00  0.0000000000000000e+00  0.0000000000000000e+00  0.0000000000000000e+00  0.0000000000000000e+00  0.0000000000000000e+00  0.0000000000000000e+00  0.0000000000000000e+00  0.0000000000000000e+00  0.0000000000000000e+00  0.0000000000000000e+00  0.0000000000000000e+00  0.0000000000000000e+00  0.0000000000000000e+00  0.0000000000000000e+00  0.0000000000000000e+00  0.0000000000000000e+00  0.0000000000000000e+00  0.0000000000000000e+00  0.0000000000000000e+00  0.0000000000000000e+00  0.0000000000000000e+00  0.0000000000000000e+00  0.0000000000000000e+00  0.0000000000000000e+00  0.0000000000000000e+00  0.0000000000000000e+00  0.0000000000000000e+00  0.0000000000000000e+00  0.0000000000000000e+00  0.0000000000000000e+00  0.0000000000000000e+00  0.0000000000000000e+00  0.0000000000000000e+00  0.0000000000000000e+00  0.0000000000000000e+00  0.0000000000000000e+00  0.0000000000000000e+00  0.0000000000000000e+00  0.0000000000000000e+00  0.0000000000000000e+00  0.0000000000000000e+00  0.0000000000000000e+00  0.0000000000000000e+00  0.0000000000000000e+00  0.0000000000000000e+00  0.0000000000000000e+00  0.0000000000000000e+00  0.0000000000000000e+00  0.0000000000000000e+00  0.0000000000000000e+00  0.0000000000000000e+00  0.0000000000000000e+00  0.0000000000000000e+00  0.0000000000000000e+00  0.0000000000000000e+00  0.0000000000000000e+00  0.0000000000000000e+00  0.0000000000000000e+00  0.0000000000000000e+00  0.0000000000000000e+00  0.0000000000000000e+00  0.0000000000000000e+00  0.0000000000000000e+00  0.0000000000000000e+00  0.0000000000000000e+00  0.0000000000000000e+00  1.2489513034232800e+00  9.3680461833012763e-01  9.3673419155799209e-01  9.3675342321741717e-01  9.3678096413012835e-01  9.1579355160109122e-01  8.8200555409063530e-01  7.5071365193471662e-01  7.5064083274974647e-01  6.8725234802427793e-01  6.8411761717659447e-01  6.6355323680829792e-01  6.5501969661804471e-01  1.1308090247158993e+00  1.1308026549236030e+00  1.1434088461878398e+00  5.8252969498969320e-01  5.8249140379756492e-01  5.8669202163760625e-01  5.8250361091936653e-01  1.1447068554270896e+00  1.1234397482730203e+00  5.5894640561405873e-01  5.5995034562020152e-01  1.0870161334478923e+00  5.4720005476298006e-01  5.2967959407739074e-01  5.7197124338421412e-01  5.8513602601714720e-01  5.2733257891628327e-01  9.4367135273844371e-01  6.6270882729662040e-01  4.4361075833346020e-01  4.4361551459702403e-01  4.4745528787196037e-01  4.4361970334877127e-01  9.5497836542159908e-01  8.6102052673748586e-01  8.6093692322498894e-01  9.5909266931122217e-01  8.6695599540411006e-01  1.1995644646316106e+00  1.2042087612046914e+00  9.3726823753407940e-01  4.1149768004237613e-01  4.0230529716415719e-01  4.1005062918908192e-01  4.0327599986667739e-01  6.7913435662537425e-01  4.0003267649578095e-01  4.0037981155377628e-01  3.8083259223942723e-01  3.8947753540586028e-01  8.8016903059698648e-01  8.0579963238319885e-01  9.1115604781769199e-01  3.7921157574235415e-01  3.7884491654150343e-01  1.1183101733775473e+00  9.7341960213365220e-01  1.2159673570577829e+00  1.2102684466722977e+00  1.1947467348234764e+00  7.7689712559938062e-01  1.0978820878780815e+00  3.8961253973746662e-01  1.0447708651034515e+00  1.0904189133373949e+00  3.7563383658557709e-01  3.5761105837288748e-01  7.5167465382668508e-01  8.4279544923338812e-01  3.5025868301331781e-01  1.0902890709781639e+00  1.2191658887618664e+00  1.0403984738363046e+00  1.0295311478344964e+00  1.0616317334005245e+00  1.0349356038170265e+00  7.8553265938207617e-01  3.3442922714756923e-01  3.3136366360470071e-01  3.3129149897929505e-01  6.9131440241229614e-01  3.3201279368000541e-01  3.5383107587157997e-01  8.1315691114638244e-01  7.1542007426455922e-01  3.2116549586701659e-01  1.0238741828018141e+00  7.7595338008788650e-01  8.1857144299072604e-01  6.7641531608240657e-01  3.1253888793275558e-01  9.6329152020590347e-01  6.7744166834411867e-01  6.7740336974795712e-01  3.1045160396992866e-01  1.0277216546119254e+00  3.1136014347611007e-01  7.3179235288127242e-01  3.1169734226973617e-01  6.4613746656136051e-01  7.7995262992856373e-01  7.5264903727849652e-01  1.1503864323992026e+00  1.0543697921650743e+00  1.0340678481574308e+00  2.9843265125561347e-01  6.1934667682733613e-01  2.8580286484019368e-01  1.0170612268227297e+00  7.2096300806035385e-01  8.0668831946045061e-01  3.1254693930185351e-01  6.2495980466933909e-01  1.2058897395672830e+00  8.1168261118776242e-01  5.4857432542471007e-01  6.3038515663591876e-01  3.2927004639390600e-01  3.0730009062853963e-01  5.4645491649171840e-01  9.0401568458815040e-01  1.1440188722463054e+00  7.4851035950870226e-01  5.9567314698102813e-01  1.1372415693479656e+00  2.8152738238519770e-01  5.9930014659782727e-01  3.7524913369565910e-01  2.9326653655560231e-01  5.6697880720725269e-01  9.1416096761482446e-01  2.8356686241636758e-01  2.8657092438328491e-01  2.7284872451369696e-01  2.7183483622258514e-01  7.0739047026331370e-01  1.2038457437958334e+00  4.5510917044176113e-01  9.9564145975148177e-01  5.8717015605732259e-01  1.1275909247805302e+00  4.9941733521698861e-01  1.2350026401338874e+00  5.5697869812904743e-01  1.0637125946393147e+00  2.4669298655680341e-01  3.7489342245283208e-01  2.7177626715445202e-01  8.8994838534680154e-01  8.0927052879319572e-01  1.0565928429438121e+00  8.2201838759612134e-01  2.4574040811602099e-01  2.4738564343507558e-01  2.4071526614048866e-01  2.4062827126562492e-01  5.0037870284380559e-01  7.7818192581245416e-01  1.1631085445061722e+00  5.1723206766095997e-01  4.8171673061851117e-01  6.8712556722042828e-01  8.2246438917243536e-01  5.7559513379237959e-01  8.6501585232374589e-01  9.8155513957097396e-01  1.2362340814237560e+00  1.1660477265077249e+00  5.2734015049985394e-01  8.1231082934465582e-01  2.5250195264221131e-01  1.1375890768264409e+00  1.0594606012542562e+00  9.4569167158990564e-01  5.2580247383052980e-01  1.0391742680172382e+00  5.5207171070389283e-01  8.6708386162623685e-01  9.4931236534621899e-01  5.1475681945442453e-01  8.3731201617017703e-01  4.8494191856596319e-01  5.5111081904556569e-01  1.1632129162034199e+00  1.2364846106467546e+00  1.1697321600013317e+00  2.2577284831864861e-01  2.3484735250461403e-01  9.1809638658102499e-01  2.2715117734124365e-01  2.4554085941522702e-01  9.0273313924843057e-01  8.1319190337065039e-01  7.3553333481542182e-01  8.1315327774595270e-01  7.2468137744927186e-01  9.4365029965048097e-01  7.3502244386594673e-01  5.6390559996067613e-01  2.2807923323847967e-01  2.1878816733563092e-01  2.1913007408004381e-01  4.9730489358303348e-01  8.4139937423670164e-01  4.9884955880260751e-01  4.8015183892884511e-01  2.2097234855351189e-01  2.1963888604000292e-01  9.6912950800279041e-01  1.0565108681541082e+00  2.1919537877837034e-01  1.0383825109060107e+00  1.0328434802699547e+00  1.1162350456426049e+00  2.1137511433624681e-01  9.3064761411858321e-01  2.1650929455934795e-01  1.2391711893846595e+00  6.6494769901712125e-01  2.3585777374943687e-01  2.2383983516040393e-01  2.1177261058561189e-01  1.0162584726429944e+00  2.0804658747125970e-01  2.7419329621673355e-01  4.2230472690567022e-01  2.3060688704991869e-01  2.0664709405192994e-01  5.5871506853129460e-01  4.5212336020119959e-01  4.6787609070732794e-01  4.4776979345810869e-01  2.1642915810723831e-01  6.0266535548572775e-01  2.2488067054683830e-01  4.1748993464798539e-01  2.0259744309893049e-01  1.1774416140925765e+00  1.1973611451508428e+00  4.6223174596540673e-01  4.8386946319338209e-01  7.9210483497738604e-01  1.1981413126021405e+00  5.7454120452974289e-01  9.8028695622357154e-01  9.3596336247628165e-01  1.1743619453990972e+00  5.1062583481936608e-01  7.5506963568033281e-01  6.9354097650301927e-01  5.2472950773839577e-01  2.0281749483500869e-01  2.1278283016866617e-01  2.0262876401019045e-01  2.5193532649762790e-01  9.3989695964771092e-01  9.4327413653905379e-01  7.2343245437704651e-01  2.0738472282530696e-01  7.1597208097987652e-01  1.0503430716724187e+00  2.0284232850804396e-01  8.2606862805384051e-01  1.0939532787778841e+00  1.0889679084283430e+00  1.2178872105407028e+00  1.1493365838769649e+00  7.1687405701276685e-01  1.2407266263616334e+00  2.0682848917232979e-01  1.1031539292825594e+00  8.7006034408848876e-01  9.5157022821718062e-01  7.9760099283896868e-01  7.5022316825592150e-01  7.6830370975633033e-01  2.0833541247324974e-01  1.1326557033512707e+00  5.3919558230819542e-01  9.6777110532239508e-01  6.6038003016332913e-01  8.2508767851769282e-01  1.0281271092696875e+00  1.0301755848680150e+00  1.1032561605142632e+00  2.4793480070630003e-01  1.0881096702798894e+00  6.0126192915524923e-01  1.1559548474515327e+00  7.1381101841543171e-01  6.5164862056502826e-01  1.2365980366433478e+00  1.0155296692213873e+00  4.8071750508007560e-01  6.8967648044200924e-01  5.4851778657798733e-01  1.1803063129953646e+00  4.2748873890391309e-01  8.8511627295767792e-01  5.8835309845458250e-01  1.8912282632377400e-01  1.8526997074251764e-01  1.2091931123773452e+00  6.4976050125360607e-01  1.9669768120298092e-01  4.3665932519181638e-01  4.7296877767992834e-01  1.9548032005280783e-01  4.3455326211274664e-01  1.8958438047942042e-01  1.9289396132090256e-01  1.0971748629964158e+00  1.8387076117576054e-01  6.4209627407756331e-01  7.0219192619523030e-01  7.1101566698587626e-01  5.3591990908055931e-01  1.8217076482928105e-01  1.0339457414724085e+00  1.0292191806304503e+00  1.1084718883820566e+00  9.3165359891569666e-01  3.9930833232611151e-01  9.5818182459177004e-01  7.6023954387335946e-01  8.5903470859939801e-01  1.2271236726395192e+00  1.7947663225193258e-01  1.8002175272997334e-01  4.5449989982353461e-01  1.0042887619863221e+00  1.0952387243278978e+00  6.8649202125433184e-01  1.0139290979733666e+00  9.9472034197029258e-01  6.0676338836189980e-01  8.4434652362839846e-01  9.5930491934274509e-01  7.1672756253950654e-01  8.2163800472314530e-01  6.9748804247476304e-01  8.5939057823812148e-01  3.8051550714068350e-01  4.6062533515648740e-01  9.0367140197026041e-01  6.6271409016759786e-01  1.1767425495590997e+00  1.8391429512540614e-01  8.7166370534923243e-01  8.7720159543040355e-01  4.9473647755394212e-01  4.2494937396931454e-01  3.9571751237260705e-01  3.8257809811023258e-01  1.1818860777276976e+00  3.7116560008754257e-01  8.5715331486894164e-01  9.9011001514066099e-01  5.9092059193000834e-01  6.3329859693193724e-01  1.1092497708390474e+00  3.8829894174720714e-01  3.8155257963614120e-01  6.6837075301805149e-01  6.4533545335227360e-01  8.8928129557595292e-01  3.8916546894095827e-01  1.2220883590528342e+00  7.6019851926544812e-01  1.0171090122949349e+00  1.1006558831887978e+00  1.6655957142900241e-01  3.8457076175826116e-01  8.4446927661711613e-01  1.6949168919670912e-01  8.3047939370236934e-01  2.6186969310853325e-01  1.6995579416335546e-01  1.6531309906426739e-01  1.6952177264546797e-01  7.6714939782795866e-01  1.2429519377068241e+00  8.4053489301622886e-01  1.7035715820229905e-01  1.6278636632846993e-01  9.5934640054309794e-01  6.1124281312203343e-01  1.1700005257642518e+00  6.8042484132200665e-01  6.3399497140874972e-01  1.6650473968258447e-01  6.8137982770889471e-01  9.4513327487011367e-01  1.0905798781902343e+00  1.6631306177183983e-01  4.0807495838209268e-01  6.3152826481582469e-01  5.6367251624652792e-01  4.3740892607259180e-01  3.6069338207622859e-01  1.7331136459488555e-01  3.7488031943545319e-01  4.1909629619530780e-01  4.4167976159527883e-01  3.6810911099100901e-01  9.8643550042557782e-01  3.6924307641364668e-01  1.1408667280429801e+00  7.1682113202276776e-01  7.6665849987699908e-01  5.6132395395381762e-01  5.2000587049843627e-01  2.1460172481475986e-01  9.9590269127073694e-01  6.9589720215559092e-01  4.2968734917583462e-01  3.9841375360009695e-01  6.0112415015247533e-01  1.2256632869748383e+00  7.0921039186202561e-01  4.3688495575251063e-01  5.9397180928105320e-01  1.0524304649051983e+00  1.6559097850091056e-01  1.5775686698884667e-01  7.7570573384462249e-01  8.4773916057281373e-01  7.9320575962042161e-01  1.6152108289980863e-01  1.0800325396724393e+00  1.1855367320970345e+00  7.8094075552048181e-01  5.5750323930379009e-01  3.7805838628024446e-01  1.1331584126442538e+00  1.1912473204954623e+00  5.3631760403724860e-01  9.2356835250313740e-01  3.3567088170730991e-01  1.6040428504866275e-01  8.2652482945669958e-01  1.5270321662783087e-01  1.1033888059649073e+00  6.7828476087350187e-01  9.8178544023617198e-01  1.0518552682680791e+00  9.7268501042463729e-01  1.0880928942119794e+00  7.8199023035196247e-01  1.5518181547594243e-01  1.5710890404010922e-01  1.6007374347110476e-01  4.5528085418641173e-01  3.8382396114566958e-01  7.2331996655998931e-01  5.0449506829026469e-01  3.5496161879353677e-01  1.5701917810350094e-01  1.1989321364159977e+00  5.0862134227389366e-01  5.6800827245441332e-01  1.1632803370755722e+00  4.5943884573428218e-01  9.1389031936618292e-01  1.0810164519562873e+00  1.4886817116342668e-01  9.9897014969587750e-01  4.6274440840855208e-01  1.1715764031570819e+00  1.2186401038402792e+00  3.3663804857274210e-01  3.5682177762568101e-01  1.6282125111522430e-01  9.5825947045830107e-01  1.4544295792530054e-01  8.2485866778333661e-01  1.0716101172753418e+00  9.8206221522722781e-01  8.8938822330189471e-01  6.3783652434570925e-01  3.2907955629680558e-01  5.8644649599103105e-01  1.5218810909864211e-01  6.3360581576949426e-01  7.4149181904231176e-01  8.6309061715933832e-01  8.8038253331623428e-01  7.8831902487267358e-01  5.1527767608674679e-01  5.9293947584187801e-01  6.5423299675437185e-01  3.2681038384658495e-01  1.1035491894811089e+00  1.4356904421586084e-01  1.1483507976989358e+00  8.8933063779182886e-01  7.3001860904393678e-01  7.7212111416409512e-01  8.2332315692603286e-01  8.8174363209647577e-01  6.4750465410874214e-01  1.0877327324732269e+00  1.1695710548557321e+00  5.3618997611824315e-01  1.4699691910233878e-01  9.7903914183255625e-01  3.3819755140574514e-01  8.9451406833527569e-01  1.1034451079877823e+00  5.3954557411516535e-01  1.1400965053015590e+00  1.1994621116519932e+00  6.5906566889940676e-01  1.0384862234849312e+00  6.1121868519634703e-01  6.5384256836061538e-01  5.2168484126139236e-01  7.2280635635671187e-01  6.4373693305154001e-01  9.4030339826058607e-01  1.4965379562317213e-01  9.9707386986717395e-01  3.6699836760709753e-01  6.0819434238903902e-01  8.5328761575700030e-01  1.4961524142212274e-01  3.4671508777786897e-01  1.1964228819642422e+00  4.3315315161946