<?xml version="1.0"?>
<VTKFile type="UnstructuredGrid"  version="0.1"  >
<UnstructuredGrid>
<Piece  NumberOfPoints="18071" NumberOfCells="35544">
<Points>
<DataArray  type="Float64"  NumberOfComponents="3"  format="ascii">0.9486832980505138 0 0  0.9484724340806782 0.02000104469955538 0  0.9478399359086995 0.03999319812908447 0  0.9467860847054931 0.0599675729710886 0  0.9453113489503684 0.07991528981136745 0  0.9434163842227721 0.09982748108627622 0  0.9411020329108563 0.119695295024715 0  0.938369323837003 0.1395098995830973 0  0.9352194718004709 0.1592624863715497 0  0.931653877037369 0.1789442745695953 0  0.9276741245981944 0.1985465148295827 0  0.9232819836432135 0.2180604931661231 0  0.9184794066559997 0.2374775348298079 0  0.9132685285754754 0.2567890081634844 0  0.9076516658468453 0.2759863284393749 0  0.9016313153918442 0.2950609616753339 0  0.8952101534987531 0.3140044284285474 0  0.8883910346326832 0.3328083075649862 0  0.8811769901666499 0.3514642400029395 0  0.873571227034005 0.3699639324289635 0  0.8655771263028276 0.3882991609845931 0  0.8571982416729006 0.4064617749221782 0  0.8484382978959503 0.4244437002282196 0  0.8393011891198424 0.4422369432125932 0  0.829790977157478 0.459833594062067 0  0.8199118896811526 0.477225830356532 0  0.8096683183431869 0.4944059205463824 0  0.7990648168236594 0.5113662273895018 0  0.7881060988061126 0.5280992113463244 0  0.7767970358821309 0.5445974339314641 0  0.7651426553857218 0.5608535610204205 0  0.753148138158463 0.5768603661098937 0  0.7408188162464108 0.5926107335302548 0  0.7281601705297891 0.6080976616087488 0  0.7151778282865192 0.6233142657820195 0  0.7018775606906669 0.6382537816565753 0  0.6882652802469232 0.652909568015835 0  0.6743470381622587 0.6672751097724156 0  0.6601290216559174 0.6813440208643511 0  0.6456175512089487 0.6951100470939552 0  0.6308190777544996 0.7085670689080622 0  0.6157401798101144 0.7217091041184169 0  0.6003875605533189 0.734530310560997 0  0.584768044841788 0.7470249886930909 0  0.5688885761794213 0.7591875841269735 0  0.5527562136296766 0.7710126900990562 0  0.5363781286775311 0.7824950498734097 0  0.5197616020414676 0.7936295590785962 0  0.5029140204369025 0.8044112679767674 0  0.4858428732924924 0.8148353836640227 0  0.4685557494207815 0.8248972722010478 0  0.4510603336446699 0.8345924606730875 0  0.4333644033811983 0.8439166391783361 0  0.4154758251841748 0.8528656627438631 0  0.3974025512471733 0.8614355531682203 0  0.379152615868464 0.8696225007899122 0  0.3607341318794444 0.8774228661809444 0  0.342155287038158 0.8848331817646961 0  0.3234243403895067 0.8918501533573969 0  0.3045496185937731 0.898470661632525 0  0.2855395122250832 0.904691763507473 0  0.2664024720414594 0.9105106934518669 0  0.2471470052281184 0.915924864716955 0  0.2277816716156831 0.9209318704855235 0  0.2083150798749952 0.925529484941822 0  0.1887558836902123 0.9297156642610294 0  0.1691127779118977 0.9334885475178156 0  0.1493944946918097 0.9368464575135985 0  0.1296097996011066 0.9397879015221259 0  0.1097674877336993 0.9423115719530522 0  0.08987637979647611 0.9444163469332154 0  0.06994531818814397 0.9461012908053551 0  0.04998316306842656 0.9473656545440494 0  0.02999878841936526 0.9482088760886865 0  0.01000107810047723 0.9486305805933245 0  -0.01000107810047732 0.9486305805933245 0  -0.02999878841936514 0.9482088760886865 0  -0.04998316306842644 0.9473656545440494 0  -0.06994531818814406 0.9461012908053551 0  -0.08987637979647599 0.9444163469332155 0  -0.1097674877336992 0.9423115719530522 0  -0.1296097996011065 0.9397879015221259 0  -0.1493944946918096 0.9368464575135985 0  -0.1691127779118979 0.9334885475178156 0  -0.1887558836902122 0.9297156642610294 0  -0.2083150798749951 0.925529484941822 0  -0.227781671615683 0.9209318704855235 0  -0.247147005228118 0.9159248647169551 0  -0.2664024720414591 0.9105106934518669 0  -0.2855395122250831 0.904691763507473 0  -0.3045496185937729 0.8984706616325251 0  -0.3234243403895066 0.8918501533573969 0  -0.3421552870381577 0.8848331817646962 0  -0.3607341318794441 0.8774228661809446 0  -0.3791526158684641 0.8696225007899122 0  -0.3974025512471734 0.8614355531682203 0  -0.4154758251841746 0.8528656627438632 0  -0.4333644033811984 0.8439166391783361 0  -0.4510603336446696 0.8345924606730876 0  -0.4685557494207815 0.8248972722010479 0  -0.4858428732924923 0.8148353836640227 0  -0.5029140204369026 0.8044112679767673 0  -0.5197616020414676 0.7936295590785962 0  -0.536378128677531 0.7824950498734098 0  -0.5527562136296768 0.7710126900990562 0  -0.5688885761794211 0.7591875841269737 0  -0.5847680448417879 0.747024988693091 0  -0.6003875605533187 0.7345303105609973 0  -0.6157401798101142 0.721709104118417 0  -0.6308190777544995 0.7085670689080623 0  -0.6456175512089487 0.6951100470939551 0  -0.6601290216559171 0.6813440208643513 0  -0.6743470381622587 0.6672751097724156 0  -0.688265280246923 0.6529095680158352 0  -0.7018775606906668 0.6382537816565753 0  -0.7151778282865192 0.6233142657820195 0  -0.7281601705297891 0.6080976616087488 0  -0.7408188162464107 0.592610733530255 0  -0.753148138158463 0.5768603661098938 0  -0.7651426553857216 0.5608535610204208 0  -0.7767970358821308 0.5445974339314642 0  -0.7881060988061125 0.5280992113463245 0  -0.7990648168236594 0.5113662273895018 0  -0.8096683183431868 0.4944059205463825 0  -0.8199118896811526 0.477225830356532 0  -0.8297909771574777 0.4598335940620675 0  -0.8393011891198424 0.4422369432125932 0  -0.8484382978959502 0.4244437002282198 0  -0.8571982416729006 0.4064617749221782 0  -0.8655771263028273 0.3882991609845933 0  -0.873571227034005 0.3699639324289636 0  -0.8811769901666499 0.3514642400029395 0  -0.8883910346326833 0.332808307564986 0  -0.8952101534987531 0.3140044284285475 0  -0.9016313153918442 0.295060961675334 0  -0.9076516658468452 0.2759863284393752 0  -0.9132685285754755 0.2567890081634842 0  -0.9184794066559997 0.237477534829808 0  -0.9232819836432135 0.218060493166123 0  -0.9276741245981943 0.1985465148295829 0  -0.931653877037369 0.1789442745695954 0  -0.9352194718004709 0.15926248637155 0  -0.938369323837003 0.1395098995830971 0  -0.9411020329108563 0.1196952950247151 0  -0.9434163842227721 0.09982748108627618 0  -0.9453113489503684 0.07991528981136768 0  -0.9467860847054931 0.05996757297108869 0  -0.9478399359086995 0.03999319812908442 0  -0.9484724340806782 0.02000104469955522 0  -0.9486832980505138 1.161801964362116e-16 0  -0.9484724340806782 -0.02000104469955541 0  -0.9478399359086995 -0.0399931981290842 0  -0.9467860847054931 -0.05996757297108847 0  -0.9453113489503684 -0.07991528981136745 0  -0.9434163842227721 -0.09982748108627594 0  -0.9411020329108563 -0.1196952950247148 0  -0.938369323837003 -0.1395098995830973 0  -0.935219471800471 -0.1592624863715494 0  -0.9316538770373691 -0.1789442745695952 0  -0.9276741245981944 -0.1985465148295827 0  -0.9232819836432136 -0.2180604931661228 0  -0.9184794066559998 -0.2374775348298077 0  -0.9132685285754755 -0.256789008163484 0  -0.9076516658468454 -0.2759863284393745 0  -0.9016313153918442 -0.2950609616753337 0  -0.8952101534987533 -0.3140044284285469 0  -0.8883910346326832 -0.3328083075649862 0  -0.8811769901666497 -0.3514642400029397 0  -0.8735712270340051 -0.3699639324289634 0  -0.8655771263028275 -0.3882991609845931 0  -0.8571982416729007 -0.406461774922178 0  -0.8484382978959503 -0.4244437002282196 0  -0.8393011891198425 -0.4422369432125929 0  -0.8297909771574781 -0.4598335940620669 0  -0.8199118896811529 -0.4772258303565314 0  -0.8096683183431871 -0.494405920546382 0  -0.7990648168236597 -0.5113662273895012 0  -0.7881060988061124 -0.5280992113463246 0  -0.7767970358821309 -0.544597433931464 0  -0.7651426553857217 -0.5608535610204206 0  -0.7531481381584632 -0.5768603661098936 0  -0.7408188162464108 -0.5926107335302547 0  -0.7281601705297893 -0.6080976616087486 0  -0.7151778282865193 -0.6233142657820193 0  -0.7018775606906672 -0.638253781656575 0  -0.6882652802469235 -0.6529095680158347 0  -0.674347038162259 -0.6672751097724151 0  -0.660129021655917 -0.6813440208643514 0  -0.6456175512089486 -0.6951100470939552 0  -0.6308190777544994 -0.7085670689080624 0  -0.6157401798101141 -0.7217091041184172 0  -0.6003875605533191 -0.7345303105609969 0  -0.5847680448417881 -0.7470249886930909 0  -0.5688885761794213 -0.7591875841269736 0  -0.5527562136296765 -0.7710126900990563 0  -0.5363781286775317 -0.7824950498734093 0  -0.519761602041468 -0.7936295590785959 0  -0.5029140204369028 -0.8044112679767672 0  -0.4858428732924925 -0.8148353836640226 0  -0.4685557494207817 -0.8248972722010478 0  -0.4510603336446699 -0.8345924606730875 0  -0.4333644033811982 -0.8439166391783361 0  -0.4154758251841745 -0.8528656627438633 0  -0.3974025512471736 -0.8614355531682203 0  -0.3791526158684643 -0.8696225007899121 0  -0.3607341318794445 -0.8774228661809444 0  -0.342155287038158 -0.8848331817646962 0  -0.3234243403895075 -0.8918501533573966 0  -0.3045496185937727 -0.8984706616325251 0  -0.2855395122250827 -0.9046917635074732 0  -0.2664024720414597 -0.9105106934518667 0  -0.2471470052281185 -0.915924864716955 0  -0.2277816716156832 -0.9209318704855235 0  -0.2083150798749951 -0.925529484941822 0  -0.1887558836902128 -0.9297156642610293 0  -0.1691127779118983 -0.9334885475178155 0  -0.14939449469181 -0.9368464575135985 0  -0.1296097996011069 -0.9397879015221258 0  -0.1097674877336994 -0.942311571953052 0  -0.08987637979647602 -0.9444163469332154 0  -0.06994531818814387 -0.9461012908053551 0  -0.04998316306842625 -0.9473656545440494 0  -0.02999878841936558 -0.9482088760886865 0  -0.01000107810047755 -0.9486305805933245 0  0.0100010781004772 -0.9486305805933245 0  0.02999878841936524 -0.9482088760886865 0  0.04998316306842591 -0.9473656545440494 0  0.06994531818814352 -0.9461012908053552 0  0.08987637979647567 -0.9444163469332155 0  0.1097674877336991 -0.9423115719530522 0  0.1296097996011066 -0.9397879015221259 0  0.1493944946918097 -0.9368464575135985 0  0.1691127779118979 -0.9334885475178156 0  0.1887558836902125 -0.929715
[...]
<PointData  Scalars="f_29-2"> 
<DataArray  type="Float64"  Name="f_29-2"  format="ascii">0.0000000000000000e+00  0.0000000000000000e+00  0.0000000000000000e+00  0.0000000000000000e+00  0.0000000000000000e+00  0.0000000000000000e+00  0.0000000000000000e+00  0.0000000000000000e+00  0.0000000000000000e+00  0.0000000000000000e+00  0.0000000000000000e+00  0.0000000000000000e+00  0.0000000000000000e+00  0.0000000000000000e+00  0.0000000000000000e+00  0.0000000000000000e+00  0.0000000000000000e+00  0.0000000000000000e+00  0.0000000000000000e+00  0.0000000000000000e+00  0.0000000000000000e+00  0.0000000000000000e+00  0.0000000000000000e+00  0.0000000000000000e+00  0.0000000000000000e+00  0.0000000000000000e+00  0.0000000000000000e+00  0.0000000000000000e+00  0.0000000000000000e+00  0.0000000000000000e+00  0.0000000000000000e+00  0.0000000000000000e+00  0.0000000000000000e+00  0.0000000000000000e+00  0.0000000000000000e+00  0.0000000000000000e+00  0.0000000000000000e+00  0.0000000000000000e+00  0.0000000000000000e+00  0.0000000000000000e+00  0.0000000000000000e+00  0.0000000000000000e+00  0.0000000000000000e+00  0.0000000000000000e+00  0.0000000000000000e+00  0.0000000000000000e+00  0.0000000000000000e+00  0.0000000000000000e+00  0.0000000000000000e+00  0.0000000000000000e+00  0.0000000000000000e+00  0.0000000000000000e+00  0.0000000000000000e+00  0.0000000000000000e+00  0.0000000000000000e+00  0.0000000000000000e+00  0.0000000000000000e+00  0.0000000000000000e+00  0.0000000000000000e+00  0.0000000000000000e+00  0.0000000000000000e+00  0.0000000000000000e+00  0.0000000000000000e+00  0.0000000000000000e+00  0.0000000000000000e+00  0.0000000000000000e+00  0.0000000000000000e+00  0.0000000000000000e+00  0.0000000000000000e+00  0.0000000000000000e+00  0.0000000000000000e+00  0.0000000000000000e+00  0.0000000000000000e+00  0.0000000000000000e+00  0.0000000000000000e+00  0.0000000000000000e+00  0.0000000000000000e+00  0.0000000000000000e+00  0.0000000000000000e+00  0.0000000000000000e+00  0.0000000000000000e+00  0.0000000000000000e+00  0.0000000000000000e+00  0.0000000000000000e+00  0.0000000000000000e+00  0.0000000000000000e+00  0.0000000000000000e+00  0.0000000000000000e+00  0.0000000000000000e+00  0.0000000000000000e+00  0.0000000000000000e+00  0.0000000000000000e+00  0.0000000000000000e+00  0.0000000000000000e+00  0.0000000000000000e+00  0.0000000000000000e+00  0.0000000000000000e+00  0.0000000000000000e+00  0.0000000000000000e+00  0.0000000000000000e+00  0.0000000000000000e+00  0.0000000000000000e+00  0.0000000000000000e+00  0.0000000000000000e+00  0.0000000000000000e+00  0.0000000000000000e+00  0.0000000000000000e+00  0.0000000000000000e+00  0.0000000000000000e+00  0.0000000000000000e+00  0.0000000000000000e+00  0.0000000000000000e+00  0.0000000000000000e+00  0.0000000000000000e+00  0.0000000000000000e+00  0.0000000000000000e+00  0.0000000000000000e+00  0.0000000000000000e+00  0.0000000000000000e+00  0.0000000000000000e+00  0.0000000000000000e+00  0.0000000000000000e+00  0.0000000000000000e+00  0.0000000000000000e+00  0.0000000000000000e+00  0.0000000000000000e+00  0.0000000000000000e+00  0.0000000000000000e+00  0.0000000000000000e+00  0.0000000000000000e+00  0.0000000000000000e+00  0.0000000000000000e+00  0.0000000000000000e+00  0.0000000000000000e+00  0.0000000000000000e+00  0.0000000000000000e+00  0.0000000000000000e+00  0.0000000000000000e+00  0.0000000000000000e+00  0.0000000000000000e+00  0.0000000000000000e+00  0.0000000000000000e+00  0.0000000000000000e+00  0.0000000000000000e+00  0.0000000000000000e+00  0.0000000000000000e+00  0.0000000000000000e+00  0.0000000000000000e+00  0.0000000000000000e+00  0.0000000000000000e+00  0.0000000000000000e+00  0.0000000000000000e+00  0.0000000000000000e+00  0.0000000000000000e+00  0.0000000000000000e+00  0.0000000000000000e+00  0.0000000000000000e+00  0.0000000000000000e+00  0.0000000000000000e+00  0.0000000000000000e+00  0.0000000000000000e+00  0.0000000000000000e+00  0.0000000000000000e+00  0.0000000000000000e+00  0.0000000000000000e+00  0.0000000000000000e+00  0.0000000000000000e+00  0.0000000000000000e+00  0.0000000000000000e+00  0.0000000000000000e+00  0.0000000000000000e+00  0.0000000000000000e+00  0.0000000000000000e+00  0.0000000000000000e+00  0.0000000000000000e+00  0.0000000000000000e+00  0.0000000000000000e+00  0.0000000000000000e+00  0.0000000000000000e+00  0.0000000000000000e+00  0.0000000000000000e+00  0.0000000000000000e+00  0.0000000000000000e+00  0.0000000000000000e+00  0.0000000000000000e+00  0.0000000000000000e+00  0.0000000000000000e+00  0.0000000000000000e+00  0.0000000000000000e+00  0.0000000000000000e+00  0.0000000000000000e+00  0.0000000000000000e+00  0.0000000000000000e+00  0.0000000000000000e+00  0.0000000000000000e+00  0.0000000000000000e+00  0.0000000000000000e+00  0.0000000000000000e+00  0.0000000000000000e+00  0.0000000000000000e+00  0.0000000000000000e+00  0.0000000000000000e+00  0.0000000000000000e+00  0.0000000000000000e+00  0.0000000000000000e+00  0.0000000000000000e+00  0.0000000000000000e+00  0.0000000000000000e+00  0.0000000000000000e+00  0.0000000000000000e+00  0.0000000000000000e+00  0.0000000000000000e+00  0.0000000000000000e+00  0.0000000000000000e+00  0.0000000000000000e+00  0.0000000000000000e+00  0.0000000000000000e+00  0.0000000000000000e+00  0.0000000000000000e+00  0.0000000000000000e+00  0.0000000000000000e+00  0.0000000000000000e+00  0.0000000000000000e+00  0.0000000000000000e+00  0.0000000000000000e+00  0.0000000000000000e+00  0.0000000000000000e+00  0.0000000000000000e+00  0.0000000000000000e+00  0.0000000000000000e+00  0.0000000000000000e+00  0.0000000000000000e+00  0.0000000000000000e+00  0.0000000000000000e+00  0.0000000000000000e+00  0.0000000000000000e+00  0.0000000000000000e+00  0.0000000000000000e+00  0.0000000000000000e+00  0.0000000000000000e+00  0.0000000000000000e+00  0.0000000000000000e+00  0.0000000000000000e+00  0.0000000000000000e+00  0.0000000000000000e+00  0.0000000000000000e+00  0.0000000000000000e+00  0.0000000000000000e+00  0.0000000000000000e+00  0.0000000000000000e+00  0.0000000000000000e+00  0.0000000000000000e+00  0.0000000000000000e+00  0.0000000000000000e+00  0.0000000000000000e+00  0.0000000000000000e+00  0.0000000000000000e+00  0.0000000000000000e+00  0.0000000000000000e+00  0.0000000000000000e+00  0.0000000000000000e+00  0.0000000000000000e+00  0.0000000000000000e+00  0.0000000000000000e+00  0.0000000000000000e+00  0.0000000000000000e+00  0.0000000000000000e+00  0.0000000000000000e+00  0.0000000000000000e+00  0.0000000000000000e+00  0.0000000000000000e+00  0.0000000000000000e+00  0.0000000000000000e+00  0.0000000000000000e+00  0.0000000000000000e+00  0.0000000000000000e+00  0.0000000000000000e+00  0.0000000000000000e+00  0.0000000000000000e+00  0.0000000000000000e+00  0.0000000000000000e+00  0.0000000000000000e+00  0.0000000000000000e+00  0.0000000000000000e+00  0.0000000000000000e+00  0.0000000000000000e+00  0.0000000000000000e+00  0.0000000000000000e+00  0.0000000000000000e+00  0.0000000000000000e+00  0.0000000000000000e+00  0.0000000000000000e+00  0.0000000000000000e+00  0.0000000000000000e+00  0.0000000000000000e+00  0.0000000000000000e+00  0.0000000000000000e+00  0.0000000000000000e+00  1.2484684948529869e+00  9.3648119634082749e-01  9.3641080337980198e-01  9.3643001059065090e-01  9.3645754970635808e-01  9.1547980194445666e-01  8.8170710915266270e-01  7.5047172828929931e-01  7.5039892254248985e-01  6.8703604439470600e-01  6.8390254936513128e-01  6.6334623642831603e-01  6.5481602735361499e-01  1.1303900552861945e+00  1.1303836880921623e+00  1.1429832780899110e+00  5.8235345663459614e-01  5.8231519329154668e-01  5.8651423587843310e-01  5.8232738212803925e-01  1.1442806057270047e+00  1.1230246175555774e+00  5.5877881335002588e-01  5.5978237461022651e-01  1.0866197174085586e+00  5.4703670850675790e-01  5.2952253050276377e-01  5.7179888451806993e-01  5.8495880931708522e-01  5.2717634421828630e-01  9.4334473260247387e-01  6.6250218186485010e-01  4.4348345423410324e-01  4.4348823296009038e-01  4.4732671017650449e-01  4.4349240920227961e-01  9.5464645962287897e-01  8.6073144197765683e-01  8.6064786891260403e-01  9.5875883201727052e-01  8.6666428966513920e-01  1.1991088811643822e+00  1.2037506521796504e+00  9.3694460186496853e-01  4.1138105331986308e-01  4.0219170390549847e-01  4.0993444810242824e-01  4.0316206930685589e-01  6.7892126583674806e-01  3.9991980253443843e-01  4.0026682531544711e-01  3.8072591404800077e-01  3.8936809375011283e-01  8.7987142839730226e-01  8.0553456807218859e-01  9.1084441775329017e-01  3.7910545129555889e-01  3.7873887337165912e-01  1.1178977002388866e+00  9.7307899419644028e-01  1.2155028174272919e+00  1.2098070293659098e+00  1.1942937668108227e+00  7.7664429210951114e-01  1.0974801331031032e+00  3.8950306029063592e-01  1.0443956526219060e+00  1.0900207652046747e+00  3.7552883422301914e-01  3.5751178909603065e-01  7.5143231777920483e-01  8.4251438413979518e-01  3.5016174345719198e-01  1.0898909913771131e+00  1.2186995936940750e+00  1.0400254185255269e+00  1.0291634510640644e+00  1.0612481237213469e+00  1.0345652591340990e+00  7.8527619821691408e-01  3.3433722590399606e-01  3.3127261076311654e-01  3.3120047724619889e-01  6.9109649281525820e-01  3.3192152838386185e-01  3.5373299620543730e-01  8.1288869007816766e-01  7.1519253171835095e-01  3.2107759174568912e-01  1.0235092575158420e+00  7.7570093868829026e-01  8.1830089313574783e-01  6.7620329101815191e-01  3.1245363827767159e-01  9.6295569636455369e-01  6.7722923604748897e-01  6.7719097518365157e-01  3.1036698345306657e-01  1.0273548532827359e+00  3.1127525187512761e-01  7.3155817776895526e-01  3.1161234926830444e-01  6.4593721518776759e-01  7.7969853114559962e-01  7.5240629002741133e-01  1.1499571858354034e+00  1.0539898138905606e+00  1.0336979267232724e+00  2.9835168678748408e-01  6.1915667729376278e-01  2.8572570679593728e-01  1.0166996288766497e+00  7.2073323550511526e-01  8.0642287834333215e-01  3.1246167823776821e-01  6.2476767346467843e-01  1.2054307144127425e+00  8.1141501484495571e-01  5.4841047155290334e-01  6.3019094735794334e-01  3.2917963299645370e-01  3.0721644046369867e-01  5.4629182407059362e-01  9.0370731495793721e-01  1.1435929833981899e+00  7.4826932472457119e-01  5.9549201974330757e-01  1.1368192388957556e+00  2.8145150712831463e-01  5.9911768568897183e-01  3.7514427661625527e-01  2.9318713125708307e-01  5.6680828054745569e-01  9.1384796452299411e-01  2.8349038853571773e-01  2.8649350848593375e-01  2.7277544177415330e-01  2.7176183749349725e-01  7.0716616154058820e-01  1.2033878314953863e+00  4.5497802353710320e-01  9.9529023942233485e-01  5.8699219438788564e-01  1.1271736328141704e+00  4.9927092869267181e-01  1.2345275998658534e+00  5.5681180360993343e-01  1.0633279397918882e+00  2.4662740832352284e-01  3.7478865375197101e-01  2.7170330494107670e-01  8.8964637617391151e-01  8.0900398611940183e-01  1.0562117476429080e+00  8.2174635452879929e-01  2.4567509979388807e-01  2.4731984704730015e-01  2.4065144159094909e-01  2.4056444119829040e-01  5.0023195737671400e-01  7.7792856019454981e-01  1.1626725644635989e+00  5.1707942132847140e-01  4.8157646325297637e-01  6.8690932226351076e-01  8.2219217296311653e-01  5.7542145954519952e-01  8.6472500879290159e-01  9.8121066837461468e-01  1.2357583583232277e+00  1.1656101776122965e+00  5.2718391016597543e-01  8.1204296226821104e-01  2.5243464366102020e-01  1.1371665648661589e+00  1.0590780844959613e+00  9.4536410602298693e-01  5.2564678973132595e-01  1.0388018269999255e+00  5.5190661358795534e-01  8.6679209014066816e-01  9.4898311337449859e-01  5.1460505513100407e-01  8.3703333746068731e-01  4.8480054145087992e-01  5.5094605438061806e-01  1.1627768757978338e+00  1.2360087481909434e+00  1.1692926445532033e+00  2.2571331480189671e-01  2.3478522064635490e-01  9.1778158832374612e-01  2.2709126630262660e-01  2.4547560986068923e-01  9.0242535548803338e-01  8.1292366919392101e-01  7.3529762308350466e-01  8.1288504271497852e-01  7.2445008842681546e-01  9.4332369648595460e-01  7.3478693892509261e-01  5.6373618946112891e-01  2.2801904562089997e-01  2.1873063609571444e-01  2.1907244667295334e-01  4.9715924366174014e-01  8.4111892585731574e-01  4.9870337808386228e-01  4.8001211975498015e-01  2.2091417916841619e-01  2.1958111148391091e-01  9.6879092839759562e-01  1.0561298179734080e+00  2.1913772117233124e-01  1.0380104685881517e+00  1.0324741626639065e+00  1.1158236440543481e+00  2.1131968624013647e-01  9.3032704984867542e-01  2.1645241308269531e-01  1.2386938351140211e+00  6.6474016117117096e-01  2.3579531467389198e-01  2.2378084179363800e-01  2.1171707851762983e-01  1.0158972686661725e+00  2.0799208716030471e-01  2.7411960758372378e-01  4.2218451888816438e-01  2.3054595667240704e-01  2.0659300037194137e-01  5.5854756193052113e-01  4.5199318967806784e-01  4.6774057180197448e-01  4.4764110773125165e-01  2.1637228735424494e-01  6.0248162625147950e-01  2.2482139021480238e-01  4.1737131469488253e-01  2.0254449736192595e-01  1.1769979755471913e+00  1.1969067591863729e+00  4.6209816859182684e-01  4.8372846464722175e-01  7.9184558164620567e-01  1.1976865017181446e+00  5.7436790639847446e-01  9.7994307996898966e-01  9.3564033377893463e-01  1.1739199524018369e+00  5.1047549174978823e-01  7.5482590373201452e-01  6.9332219205795476e-01  5.2457417602879997e-01  2.0276449244643618e-01  2.1272700760356228e-01  2.0257581950198644e-01  2.5186821137331145e-01  9.3957210004626046e-01  9.4294769443562376e-01  7.2320166290190635e-01  2.0733046045078982e-01  7.1574433260479298e-01  1.0499650959293696e+00  2.0278930375761872e-01  8.2579484954431093e-01  1.0935533296995803e+00  1.0885705025224131e+00  1.2174216199475523e+00  1.1489078950195231e+00  7.1664593529243603e-01  1.2402484064553267e+00  2.0677434519671345e-01  1.1027492740697751e+00  8.6976723765062669e-01  9.5123992503750310e-01  7.9733941216089821e-01  7.4998144048357085e-01  7.6805447039668429e-01  2.0828084802633717e-01  1.1322357711514288e+00  5.3903510768618723e-01  9.6743317475876434e-01  6.6017430752982731e-01  8.2481432728957838e-01  1.0277601016038782e+00  1.0298075848435522e+00  1.1028514526166584e+00  2.4786886672259523e-01  1.0877126962049311e+00  6.0107872545300300e-01  1.1555226599455726e+00  7.1358411745336769e-01  6.5144626782979109e-01  1.2361221126681237e+00  1.0151688234569489e+00  4.8057759414719714e-01  6.8945923396066267e-01  5.4835393844999414e-01  1.1798611350753603e+00  4.2736682074755339e-01  8.8481645402600173e-01  5.8817469425191782e-01  1.8907369317270878e-01  1.8522188644786200e-01  1.2087322836614816e+00  6.4955886021589737e-01  1.9664638694515177e-01  4.3653436440460563e-01  4.7283152498979819e-01  1.9542940407534173e-01  4.3442899869442830e-01  1.8953509679172578e-01  1.9284375754444544e-01  1.0967732744952299e+00  1.8382309333127209e-01  6.4189759334404717e-01  7.0196967304444935e-01  7.1078989258643555e-01  5.3576061910724826e-01  1.8212351340151198e-01  1.0335758798778547e+00  1.0288516405462482e+00  1.1080644885860984e+00  9.3133256418734645e-01  3.9919570274315080e-01  9.5784841347698091e-01  7.5999367626489112e-01  8.5874649302985506e-01  1.2266529929971479e+00  1.7943011587038704e-01  1.7997513692384462e-01  4.5436892835140069e-01  1.0039333653170983e+00  1.0948381250184489e+00  6.8627601233436675e-01  1.0135690334399983e+00  9.9436956155062373e-01  6.0657810734064121e-01  8.4406477318919859e-01  9.5897098449041329e-01  7.1649948536146024e-01  8.2136614698656107e-01  6.9726768605712397e-01  8.5910220861673192e-01  3.8040892804237858e-01  4.6049229082144183e-01  9.0336319488615680e-01  6.6250741942134295e-01  1.1762992861153045e+00  1.8386656525643771e-01  8.7136988789840641e-01  8.7690531479391831e-01  4.9459171873894170e-01  4.2482832623337474e-01  3.9560602730281069e-01  3.8247085705327000e-01  1.1814400528676621e+00  3.7106202953128858e-01  8.5686593841872072e-01  9.8976144626379947e-01  5.9074125629839147e-01  6.3310325689784575e-01  1.1088419796152702e+00  3.8818986082170964e-01  3.8144570065804684e-01  6.6816190016868071e-01  6.4513553994904493e-01  8.8897959058554399e-01  3.8905611743866370e-01  1.2216204568496469e+00  7.5995264767897219e-01  1.0167474020325917e+00  1.1002525117526492e+00  1.6651665143363539e-01  3.8446291218551326e-01  8.4418746835930347e-01  1.6944797532445366e-01  8.3020368079801399e-01  2.6179966424074119e-01  1.6991192547525874e-01  1.6527052505817794e-01  1.6947804112416051e-01  7.6690063633207683e-01  1.2424724784222527e+00  8.4025481338782093e-01  1.7031319992884936e-01  1.6274449186648360e-01  9.5901243900034361e-01  6.1105587728626320e-01  1.1695608699024391e+00  6.8021124500928609e-01  6.3379941195155265e-01  1.6646183262011707e-01  6.8116585138092856e-01  9.4480597384642517e-01  1.0901816491932108e+00  1.6627023609556354e-01  4.0795946684543472e-01  6.3133362804597248e-01  5.6350319859658571e-01  4.3728371140322708e-01  3.6059314020666927e-01  1.7326659319167820e-01  3.7477556014410901e-01  4.1897718035688497e-01  4.4155312211405118e-01  3.6800651272328305e-01  9.8608870000592985e-01  3.6914012100110288e-01  1.1404424967489961e+00  7.1659299100685125e-01  7.6640993418759584e-01  5.6115547648620101e-01  5.1985223058965746e-01  2.1454538763214701e-01  9.9555133878111735e-01  6.9567746296794997e-01  4.2956471482883762e-01  3.9830141436658451e-01  6.0094099985408755e-01  1.2251934143047112e+00  7.0898532066834663e-01  4.3675994199044060e-01  5.9379133438445042e-01  1.0520514458272059e+00  1.6554832693440372e-01  1.5771635944132764e-01  7.7545338884253545e-01  8.4745592654707436e-01  7.9294605769325277e-01  1.6147955758570759e-01  1.0796396720332346e+00  1.1850887411838371e+00  7.8068621811409367e-01  5.5733618639742410e-01  3.7795259802981518e-01  1.1327382162136732e+00  1.1907962479814358e+00  5.3615816816872042e-01  9.2325104392967683e-01  3.3557850435409681e-01  1.6036306491864655e-01  8.2625084458839171e-01  1.5266410243242964e-01  1.1029840255067074e+00  6.7807201647280368e-01  9.8144085520399393e-01  1.0514765396076400e+00  9.7234475367101880e-01  1.0876959385397931e+00  7.8173526033255525e-01  1.5514203941381224e-01  1.5706858230364065e-01  1.6003261452067263e-01  4.5514962786694357e-01  3.8371634636781099e-01  7.2308921809841287e-01  5.0434690428413564e-01  3.5486317782012383e-01  1.5697887205079822e-01  1.1984768981697833e+00  5.0847170890059090e-01  5.6783735514491374e-01  1.1628442652541047e+00  4.5930621304337366e-01  9.1357744622586312e-01  1.0806230788661111e+00  1.4883010938300573e-01  9.9861730898064660e-01  4.6261065201380774e-01  1.1711359045767464e+00  1.2181740980441573e+00  3.3654537130148954e-01  3.5672276178697004e-01  1.6277936622034458e-01  9.5792602305852481e-01  1.4540581107491568e-01  8.2458540497471078e-01  1.0712214920136087e+00  9.8171749170131417e-01  8.8908646938209623e-01  6.3763948692609340e-01  3.2898922304203104e-01  5.8626880940514869e-01  1.5214910627197717e-01  6.3341039276123112e-01  7.4125367268914577e-01  8.6280061364506500e-01  8.8008483177593722e-01  7.8806139352322857e-01  5.1512570476598063e-01  5.9275935933993484e-01  6.5402963007428883e-01  3.2672075585485161e-01  1.1031443257131124e+00  1.4353238096771898e-01  1.1479226257509505e+00  8.8902891079265800e-01  7.2978512944277030e-01  7.7187028902182631e-01  8.2305056883404015e-01  8.8144532127257558e-01  6.4730389100560071e-01  1.0873359510384728e+00  1.1691316262196954e+00  5.3603058477618748e-01  1.4695934450761994e-01  9.7869586682362741e-01  3.3810438726365449e-01  8.9421000997724465e-01  1.1030403016266002e+00  5.3938498416445890e-01  1.1396726766993857e+00  1.1990065826466176e+00  6.5886041430686293e-01  1.0381141188125154e+00  6.1103175407088661e-01  6.5363935990009925e-01  5.2153061580409177e-01  7.2257583292671757e-01  6.4353761915783325e-01  9.3997834555107362e-01  1.4961551313142440e-01  9.9672195299396393e-01  3.6689612048341042e-01  6.0800856062357533e-01  8.5300193174738292e-01  1.4957697204105730e-01  3.4661925470169064e-01  1.1959690064828148e+00  4.3302935434435