<?xml version="1.0"?>
<VTKFile type="UnstructuredGrid"  version="0.1"  >
<UnstructuredGrid>
<Piece  NumberOfPoints="3243" NumberOfCells="6301">
<Points>
<DataArray  type="Float64"  NumberOfComponents="3"  format="ascii">1 0 0  0.9987569212189223 0.04984588566069716 0  0.9950307753654014 0.09956784659581666 0  0.9888308262251285 0.1490422661761744 0  0.9801724878485438 0.1981461431993976 0  0.969077286229078 0.2467573976902936 0  0.9555728057861407 0.2947551744109042 0  0.9396926207859084 0.3420201433256687 0  0.9214762118704076 0.3884347962746947 0  0.9009688679024191 0.4338837391175581 0  0.8782215733702285 0.4782539786213182 0  0.8532908816321557 0.521435203379498 0  0.8262387743159949 0.5633200580636221 0  0.7971325072229225 0.6038044103254774 0  0.766044443118978 0.6427876096865393 0  0.7330518718298263 0.6801727377709194 0  0.6982368180860729 0.7158668492597184 0  0.6616858375968594 0.7497812029677342 0  0.6234898018587336 0.7818314824680298 0  0.58374367223479 0.8119380057158565 0  0.5425462638657594 0.8400259231507714 0  0.4999999999999999 0.8660254037844387 0  0.4562106573531631 0.8898718088114685 0  0.4112871031306117 0.9115058523116731 0  0.365341024366395 0.9308737486442042 0  0.3184866502516844 0.9479273461671317 0  0.2708404681430052 0.962624246950012 0  0.2225209339563144 0.9749279121818236 0  0.1736481776669304 0.984807753012208 0  0.1243437046474853 0.9922392066001721 0  0.07473009358642439 0.9972037971811801 0  0.02493069173807303 0.9996891820008162 0  -0.02493069173807291 0.9996891820008162 0  -0.07473009358642427 0.9972037971811801 0  -0.1243437046474852 0.9922392066001721 0  -0.1736481776669303 0.984807753012208 0  -0.2225209339563143 0.9749279121818236 0  -0.270840468143005 0.9626242469500121 0  -0.3184866502516843 0.9479273461671318 0  -0.3653410243663949 0.9308737486442044 0  -0.4112871031306114 0.9115058523116732 0  -0.4562106573531626 0.8898718088114688 0  -0.5000000000000002 0.8660254037844385 0  -0.5425462638657593 0.8400259231507715 0  -0.5837436722347896 0.8119380057158566 0  -0.6234898018587335 0.7818314824680299 0  -0.6616858375968592 0.7497812029677344 0  -0.6982368180860727 0.7158668492597186 0  -0.7330518718298263 0.6801727377709194 0  -0.7660444431189779 0.6427876096865395 0  -0.7971325072229225 0.6038044103254774 0  -0.8262387743159947 0.5633200580636223 0  -0.8532908816321556 0.5214352033794981 0  -0.8782215733702287 0.4782539786213181 0  -0.900968867902419 0.4338837391175582 0  -0.9214762118704077 0.3884347962746946 0  -0.9396926207859083 0.3420201433256689 0  -0.9555728057861406 0.2947551744109046 0  -0.9690772862290778 0.2467573976902938 0  -0.9801724878485438 0.1981461431993976 0  -0.9888308262251285 0.1490422661761747 0  -0.9950307753654014 0.09956784659581673 0  -0.9987569212189223 0.04984588566069748 0  -1 1.224646799147353e-16 0  -0.9987569212189223 -0.04984588566069723 0  -0.9950307753654014 -0.09956784659581648 0  -0.9888308262251285 -0.1490422661761745 0  -0.9801724878485439 -0.1981461431993974 0  -0.969077286229078 -0.2467573976902936 0  -0.9555728057861408 -0.2947551744109039 0  -0.9396926207859084 -0.3420201433256687 0  -0.9214762118704076 -0.3884347962746948 0  -0.9009688679024191 -0.433883739117558 0  -0.8782215733702288 -0.4782539786213179 0  -0.8532908816321557 -0.5214352033794979 0  -0.8262387743159949 -0.5633200580636221 0  -0.7971325072229226 -0.6038044103254772 0  -0.766044443118978 -0.6427876096865393 0  -0.7330518718298266 -0.6801727377709191 0  -0.6982368180860729 -0.7158668492597183 0  -0.6616858375968597 -0.749781202967734 0  -0.6234898018587337 -0.7818314824680297 0  -0.5837436722347905 -0.8119380057158559 0  -0.5425462638657592 -0.8400259231507715 0  -0.4999999999999996 -0.8660254037844388 0  -0.4562106573531632 -0.8898718088114684 0  -0.4112871031306116 -0.9115058523116731 0  -0.3653410243663957 -0.930873748644204 0  -0.318486650251685 -0.9479273461671316 0  -0.2708404681430046 -0.9626242469500123 0  -0.2225209339563146 -0.9749279121818236 0  -0.1736481776669303 -0.984807753012208 0  -0.1243437046474858 -0.992239206600172 0  -0.07473009358642473 -0.9972037971811801 0  -0.02493069173807316 -0.9996891820008162 0  0.02493069173807279 -0.9996891820008162 0  0.07473009358642436 -0.9972037971811801 0  0.1243437046474846 -0.9922392066001722 0  0.17364817766693 -0.9848077530122081 0  0.2225209339563142 -0.9749279121818236 0  0.2708404681430051 -0.962624246950012 0  0.3184866502516846 -0.9479273461671317 0  0.3653410243663945 -0.9308737486442045 0  0.4112871031306113 -0.9115058523116732 0  0.4562106573531629 -0.8898718088114687 0  0.5000000000000001 -0.8660254037844386 0  0.5425462638657597 -0.8400259231507713 0  0.5837436722347895 -0.8119380057158567 0  0.6234898018587334 -0.7818314824680299 0  0.6616858375968587 -0.7497812029677348 0  0.698236818086073 -0.7158668492597183 0  0.7330518718298266 -0.6801727377709191 0  0.7660444431189778 -0.6427876096865396 0  0.7971325072229224 -0.6038044103254775 0  0.8262387743159945 -0.5633200580636227 0  0.8532908816321558 -0.5214352033794979 0  0.8782215733702283 -0.4782539786213186 0  0.900968867902419 -0.4338837391175583 0  0.9214762118704076 -0.3884347962746947 0  0.9396926207859081 -0.3420201433256694 0  0.9555728057861406 -0.2947551744109047 0  0.9690772862290778 -0.246757397690294 0  0.9801724878485438 -0.1981461431993977 0  0.9888308262251285 -0.1490422661761744 0  0.9950307753654013 -0.09956784659581729 0  0.9987569212189223 -0.0498458856606976 0  0 -1.110223024625157e-16 0  -0.4060952245631048 0.2919625833433866 0  0.07454430279913359 0.4945691341012836 0  -0.3214937308814528 -0.3831413087744865 0  0.4060952245631052 -0.2919625833433861 0  0.4673719130775488 0.1970137823441975 0  0.07065575168974669 -0.5638195129952732 0  -0.5876518183134565 -0.07364232701738999 0  -0.2541979963622033 0.6030288969972762 0  0.4076207702370422 0.5262112245891383 0  0.6613130009878312 -0.07561785461588438 0  -0.2877924882763663 -0.08496671912316978 0  0.1122523041955583 -0.2722698749696852 0  -0.2136446684141768 -0.6649681138278456 0  0.3711239967993034 -0.5916870927688695 0  -0.6811618247539664 0.2288582017624023 0  -0.6036259983084502 -0.3898630043774365 0  -0.1519565356019055 0.3604834946258824 0  0.2223728889826192 0.7073349201016491 0  -0.5313477807263849 0.5182619981567066 0  0.6605018953341746 -0.3386195639300833 0  0.2873299503248539 -0.02875169806262802 0  0.1874625299482133 0.2355619893962034 0  0.7230148253408941 0.1735722145348512 0  -0.4549609197086589 -0.5957654959402137 0  -0.03463157487303079 0.7407085179683447 0  0.6291441987588993 0.406976916748466 0  -0.2289589159049669 0.1405285933300958 0  -0.08807616397075169 -0.392430403720013 0  0.205296612242771 -0.7458798537797463 0  -0.7547001834030465 -0.2123397074488059 0  -0.7837591992851975 0.01954573416024249 0  -0.01646532341657923 -0.7690653170628658 0  -0.4352401762958623 0.07855348178493107 0  0.2338185418859718 -0.4383564083763345 0  -0.4660907991281192 -0.2382969082541435 0  -0.07353959542582791 -0.189593951033018 0  -0.01634378184019994 0.2053797911459911 0  0.5767924862461576 -0.5348822709432305 0  0.4676013569319232 -0.1058100506567658 0  -0.4227737526629002 0.6918385751529503 0  0.3451218286438238 0.3448460222806342 0  -0.2417662837479932 0.783787041456639 0  0.7894336726564478 -0.2075150882455891 0  0.429437930868693 0.7027440193188219 0  0.5795530210908955 0.5802417886451888 0  0.818250434369694 0.01775696154863614 0  -0.09722442279153222 0.5263769109750763 0  -0.3089301091725765 0.4371354806480824 0  -0.7090524339547675 0.409371613613344 0  0.2438561876582929 0.4811936910778122 0  0.5432018434834983 0.04565923381603147 0  -0.3666591398357442 -0.7431965258712754 0  -0.5618207183878967 0.3397086085210991 0  -0.6185121444690291 -0.5572316488307958 0  -0.5977938369819751 0.08892586939414393 0  -0.2319369917805521 -0.2422716374480734 0  -0.2088517301748016 -0.8202123616008853 0  0.3674245052370875 -0.7539747860075445 0  0.5048967506413504 -0.6753011662259081 0  0.06820072641026245 0.3376857440261995 0  0.5825625451404475 -0.2068770910951368 0  -0.2093208387955752 -0.5017643152297908 0  0.4421364691493548 -0.4480702397503655 0  -0.06721994241050155 -0.6264082819342098 0  0.2198456810463068 -0.5890117939449101 0  0.1072482179998102 0.8270400658162729 0  0.101706945347264 0.1114338704246025 0  -0.826215081689274 0.1701570551503884 0  -0.7559016678791552 -0.3875281735895096 0  -0.1403081793782837 -0.05463656608767534 0  -0.4381435912761569 -0.0904638073416138 0  0.2648585596196462 -0.1972910845697012 0  0.1356675309518404 -0.09429826762197367 0  0.08800287638571841 -0.4175523043917539 0  0.772184265774069 0.3484228092971817 0  0.4820585818083429 0.3991084987153591 0  -0.6096551968804708 -0.2170872236035365 0  0.3980609174667186 0.06761537960865138 0  0.2429849976623634 0.1055167835565284 0  -0.4627258547488082 -0.3795349891758816 0  -0.5092671392521492 0.1973579212248526 0  0.7098874552164247 -0.4756664543534329 0  -0.3872144293666887 0.5549387157286028 0  0.007479912798405555 0.612104857903693 0  -0.1106088318060157 0.07657058882501411 0  -0.08645511997809778 0.8639888077054165 0  0.8546013271693483 0.1469869706377941 0  -0.7957961633846122 0.3035577340122536 0  -0.6516041046685823 0.5750440342764058 0  0.7950924905082843 -0.342029907248517 0  -0.8517730591837042 -0.1067410126442437 0  0.3279509223104274 0.7972989472436024 0  0.5615550327388615 0.2917503018191212 0  0.1039924397968217 -0.8490717333777242 0  -0.274352362125688 0.3088893272147279 0  -0.3199998995660726 -0.5804912223174621 0  0.3315659806484027 0.2091724322371269 0  -0.1325896474512148 0.6530104098458814 0  0.1376376998738423 0.6084703306290548 0  0.3241561268038429 0.6261409266958099 0  0.6961548279354922 0.5198857607104763 0  0.5313120496018447 -0.3261229251073059 0  -0.4541049825189052 0.4132022653064708 0  -0.544101644468135 0.646985081491446 0  0.5933756450024116 0.1654697377387106 0  0.6936465783424133 0.04861005800032081 0  0.1936093818855595 0.3634402114305412 0  -0.4937059030800814 
[...]
<PointData  Scalars="velocity-6"> 
<DataArray  type="Float64"  Name="velocity-6"  format="ascii">0.0000000000000000e+00  0.0000000000000000e+00  0.0000000000000000e+00  0.0000000000000000e+00  0.0000000000000000e+00  0.0000000000000000e+00  0.0000000000000000e+00  0.0000000000000000e+00  0.0000000000000000e+00  0.0000000000000000e+00  0.0000000000000000e+00  0.0000000000000000e+00  0.0000000000000000e+00  0.0000000000000000e+00  0.0000000000000000e+00  0.0000000000000000e+00  0.0000000000000000e+00  0.0000000000000000e+00  0.0000000000000000e+00  0.0000000000000000e+00  0.0000000000000000e+00  0.0000000000000000e+00  0.0000000000000000e+00  0.0000000000000000e+00  0.0000000000000000e+00  0.0000000000000000e+00  0.0000000000000000e+00  0.0000000000000000e+00  0.0000000000000000e+00  0.0000000000000000e+00  0.0000000000000000e+00  0.0000000000000000e+00  0.0000000000000000e+00  0.0000000000000000e+00  0.0000000000000000e+00  0.0000000000000000e+00  0.0000000000000000e+00  0.0000000000000000e+00  0.0000000000000000e+00  0.0000000000000000e+00  0.0000000000000000e+00  0.0000000000000000e+00  0.0000000000000000e+00  0.0000000000000000e+00  0.0000000000000000e+00  0.0000000000000000e+00  0.0000000000000000e+00  0.0000000000000000e+00  0.0000000000000000e+00  0.0000000000000000e+00  0.0000000000000000e+00  0.0000000000000000e+00  0.0000000000000000e+00  0.0000000000000000e+00  0.0000000000000000e+00  0.0000000000000000e+00  0.0000000000000000e+00  0.0000000000000000e+00  0.0000000000000000e+00  0.0000000000000000e+00  0.0000000000000000e+00  0.0000000000000000e+00  0.0000000000000000e+00  0.0000000000000000e+00  0.0000000000000000e+00  0.0000000000000000e+00  0.0000000000000000e+00  0.0000000000000000e+00  0.0000000000000000e+00  0.0000000000000000e+00  0.0000000000000000e+00  0.0000000000000000e+00  0.0000000000000000e+00  0.0000000000000000e+00  0.0000000000000000e+00  0.0000000000000000e+00  0.0000000000000000e+00  0.0000000000000000e+00  0.0000000000000000e+00  0.0000000000000000e+00  0.0000000000000000e+00  0.0000000000000000e+00  0.0000000000000000e+00  0.0000000000000000e+00  0.0000000000000000e+00  0.0000000000000000e+00  0.0000000000000000e+00  0.0000000000000000e+00  0.0000000000000000e+00  0.0000000000000000e+00  0.0000000000000000e+00  0.0000000000000000e+00  0.0000000000000000e+00  0.0000000000000000e+00  0.0000000000000000e+00  0.0000000000000000e+00  0.0000000000000000e+00  0.0000000000000000e+00  0.0000000000000000e+00  0.0000000000000000e+00  0.0000000000000000e+00  0.0000000000000000e+00  0.0000000000000000e+00  0.0000000000000000e+00  0.0000000000000000e+00  0.0000000000000000e+00  0.0000000000000000e+00  0.0000000000000000e+00  0.0000000000000000e+00  0.0000000000000000e+00  0.0000000000000000e+00  0.0000000000000000e+00  0.0000000000000000e+00  0.0000000000000000e+00  0.0000000000000000e+00  0.0000000000000000e+00  0.0000000000000000e+00  0.0000000000000000e+00  0.0000000000000000e+00  0.0000000000000000e+00  0.0000000000000000e+00  0.0000000000000000e+00  0.0000000000000000e+00  0.0000000000000000e+00  0.0000000000000000e+00  0.0000000000000000e+00  3.0134991638048148e-01  2.2620599763081026e-01  2.2622568537035243e-01  2.2624724844792149e-01  2.2624404596842576e-01  2.2412707553243225e-01  2.0435276041828235e-01  1.9587098813538636e-01  1.7263112338577116e-01  1.6820043707152763e-01  1.6821519737936755e-01  2.7435186108556986e-01  2.7539543394204868e-01  1.5469054741891280e-01  1.5468608692906652e-01  1.4611933436360905e-01  1.4604605507690166e-01  2.5549096494690249e-01  1.3603414722003726e-01  1.3575193523119380e-01  1.3565634832807508e-01  2.7624376995741562e-01  2.7424365360176889e-01  1.3513169733062333e-01  1.3238161262238052e-01  1.3605052488929534e-01  1.3252142552544363e-01  2.7970302238026001e-01  2.5282110064872354e-01  1.2135797958570729e-01  1.1647234067729503e-01  1.1641920645640763e-01  1.2328502266217529e-01  2.4269092573846882e-01  2.2726147227675242e-01  2.1898512197775430e-01  2.8905085937717623e-01  2.8863734232050020e-01  1.1522542298836268e-01  2.3234224565887224e-01  1.0360148390802623e-01  2.2987316580196837e-01  9.8943639609378076e-02  1.0095482954843693e-01  9.7238244873020421e-02  9.8889900095369423e-02  9.9798535901536006e-02  2.1530433352833434e-01  2.1527474399799493e-01  9.9608643975318212e-02  2.1394379790364138e-01  2.1211724246282870e-01  9.4658320473431770e-02  1.7185030753886749e-01  9.2831704564937223e-02  1.9157979170156741e-01  2.6770427328111157e-01  8.5788359474831558e-02  8.9577661834161049e-02  8.7343305508980187e-02  2.6581770746445882e-01  1.8660647846880773e-01  2.1258501123374199e-01  1.8230865213115949e-01  1.8207012183994087e-01  1.8264850938964600e-01  9.2077363910215843e-02  2.9457260598818363e-01  8.7215948041426308e-02  8.4174500324774790e-02  2.9453193272297018e-01  2.4126300103543313e-01  2.6861741115751003e-01  2.9326821294700051e-01  2.4670351211922870e-01  8.5358539545029838e-02  1.8368276907011696e-01  1.7544985044987857e-01  2.5245859418581640e-01  2.8030511319198048e-01  1.9376625632211356e-01  2.1181703823864015e-01  8.1623480726526934e-02  1.6376014766925484e-01  1.8883162791836117e-01  2.9595373109856499e-01  7.4343383125292817e-02  7.5017957348278722e-02  8.2999098376456151e-02  7.4005566679246335e-02  7.5908902592337305e-02  7.9607433574629002e-02  7.7624298298045055e-02  1.8106798099811711e-01  8.1175552331081507e-02  2.5024253723670303e-01  1.6932570715912851e-01  2.5524427583205606e-01  1.6793659365667876e-01  1.8445095446708673e-01  1.5189346114874977e-01  7.4102178436201899e-02  1.8457080075286925e-01  1.8817230578027422e-01  8.6241226013804323e-02  1.8740473669582064e-01  1.5597945206306973e-01  2.5051433273320167e-01  7.2310806458954172e-02  2.4812991575237756e-01  6.9924551228918524e-02  1.8462340391179252e-01  2.5591295216209176e-01  1.4857049273427683e-01  2.5354308869238290e-01  2.2406403152499899e-01  1.4497761767635878e-01  2.6874094021609923e-01  2.5022544028686255e-01  1.4434664205483705e-01  2.8497566687475495e-01  2.7913367481787138e-01  2.5490902404729587e-01  7.2640391247903849e-02  6.7139329479046203e-02  2.9182720636469550e-01  2.1426547807765953e-01  2.9159713261790254e-01  1.6533888283641396e-01  2.2106751375266301e-01  6.6159595642293428e-02  6.4192362190577737e-02  1.3476832005316292e-01  1.3174575714290584e-01  8.5153421547105854e-02  2.4858201105421185e-01  1.3917173577318703e-01  1.4336168952624390e-01  2.6112437039338854e-01  6.9450275373033929e-02  9.6111180358788392e-02  1.3958525168156630e-01  6.4136947456120766e-02  6.5275939416066797e-02  2.2496280947280584e-01  2.7152319908380806e-01  1.6949454214087800e-01  2.7208087901310052e-01  1.4387023468232063e-01  1.4330428190372291e-01  1.1717445193037017e-01  6.6796470052598561e-02  2.8524732739801745e-01  1.3333175179259651e-01  1.5011295725960888e-01  1.2342736916657897e-01  2.9823676157429030e-01  2.8546608065348872e-01  1.9368333579601987e-01  2.1972811575757972e-01  1.4101110412521500e-01  2.1892523754427937e-01  2.2731243351187125e-01  1.8523172707000815e-01  2.1053625276538926e-01  6.3418049416788455e-02  2.9823938930292221e-01  1.2569670076633149e-01  2.1563310333655256e-01  1.7146369473805573e-01  5.6915081537542968e-02  6.2220808801207200e-02  2.0120040943808234e-01  2.5514021618048155e-01  2.6963565749733037e-01  1.2209808439109873e-01  7.0440467015321653e-02  5.4325321291115135e-02  5.6383934276908132e-02  7.7699199540309155e-02  5.8358765646454445e-02  5.9793653152681932e-02  2.0616346173465885e-01  2.5444782054697435e-01  5.7184369688585410e-02  1.3032943342175082e-01  5.7044432658538820e-02  5.3391918502318191e-02  5.7075130645883439e-02  5.3051958425210335e-02  1.9119905270004064e-01  1.7194941125763463e-01  2.0639610623540827e-01  1.4398413431595602e-01  5.2242918395050374e-02  1.2495588103351071e-01  5.1520944032169919e-02  5.4185388405373083e-02  1.3909711036097910e-01  1.1950469111206265e-01  5.5035723430557099e-02  1.2601250192926025e-01  5.2093122900229778e-02  5.2935464990232890e-02  2.9887095939842584e-01  5.0506942051655290e-02  5.2772274405340887e-02  2.4371510518897804e-01  2.8574100708082867e-01  1.8500968045779176e-01  5.5928141367592658e-02  2.4772890568617423e-01  2.3344319580785960e-01  2.6817542012286466e-01  2.8359302058649566e-01  1.1279210627846269e-01  1.8302420503142625e-01  2.3579911239569204e-01  2.2438963398777875e-01  2.3957139346445927e-01  2.1731943836425063e-01  1.9319682025748572e-01  1.9358538902874378e-01  2.6953596652456180e-01  2.4967955796026994e-01  2.3258160226660218e-01  4.8718356120939464e-02  1.1145715759270478e-01  1.4178818539645699e-01  1.2007857115037734e-01  2.4757763230890178e-01  2.2901609710809101e-01  2.3233526451251793e-01  1.0856898898391039e-01  2.1633352986786808e-01  1.8611886788665341e-01  5.0379612295900128e-02  5.4045525713707368e-02  4.9772828136252542e-02  1.1929830189985036e-01  4.9150966631796349e-02  2.7133143802668769e-01  1.2295832049094875e-01  1.8433796858201629e-01  2.0708178481672887e-01  9.7182357409707029e-02  1.7072166556717142e-01  2.9910946091395124e-01  9.2372543621295461e-02  4.5443344819343284e-02  2.8351684760167944e-01  1.8081711374135609e-01  4.8770557838522438e-02  4.8774517662497588e-02  2.1946591306486429e-01  1.9915241025529945e-01  1.8505416721826048e-01  4.7521468678596933e-02  1.2378412360525169e-01  1.8063875845225150e-01  1.5249117399323986e-01  1.5797438433622130e-01  1.0543555680238825e-01  2.7274477408380837e-01  2.0729989283671685e-01  1.5235170504169623e-01  2.6448461709244858e-01  2.9105920023651927e-01  9.9298982013349385e-02  4.7266706578627367e-02  2.2865296119751322e-01  2.3684124337288845e-01  1.9935782187184731e-01  1.2460676690188875e-01  1.0728708212521305e-01  6.5695532586339062e-02  1.5403095416343998e-01  2.4567088772064891e-01  2.4839868112931451e-01  2.7951528463902203e-01  2.6809757925859806e-01  9.4903398394978619e-02  1.6628120089654505e-01  1.0171338619678094e-01  1.2251008039762745e-01  2.7392486241185021e-01  1.2615066262925775e-01  4.6684833224275982e-02  1.1819589644037834e-01  4.4869163569554657e-02  2.4833826470214332e-01  1.4397529975451079e-01  6.0449115336669572e-02  1.0060004112828184e-01  1.6862704460847569e-01  1.6540017497277557e-01  1.9524846273237847e-01  4.6235628330822828e-02  1.1628066030291295e-01  2.6496593455489714e-01  9.6501075777237433e-02  4.3100952289389129e-02  4.2138605718880229e-02  1.4603288819007701e-01  1.9772288182235193e-01  1.6514306047770913e-01  1.5548476233419101e-01  1.9585047013818307e-01  1.6830139154276066e-01  2.2912924717373881e-01  1.8272612347645728e-01  4.6177172862751588e-02  2.8603000040924914e-01  2.9962728947894995e-01  2.9418029837480242e-01  2.8635586072960922e-01  2.5970599983047055e-01  2.3862563520826305e-01  2.2031883323512147e-01  1.0628728139249360e-01  2.0483312837327089e-01  4.1321978474321799e-02  4.5041881261986688e-02  1.1356568284838510e-01  6.3821531875668677e-02  2.9369302652739593e-01  4.3664915005666327e-02  1.5116580331654308e-01  1.6579264300213270e-01  2.0782568021034148e-01  1.7578364213499340e-01  2.6253730784411261e-01  4.6712751519155195e-02  1.1081406938674562e-01  2.3399190612670731e-01  2.7175474772869218e-01  1.6832125009848378e-01  4.3906234473876093e-02  4.1900819932894351e-02  1.1006991640336919e-01  1.9883288789091322e-01  1.4497179386775891e-01  1.0247217383694344e-01  1.0791971251212594e-01  2.5102264090945786e-01  4.2204065008559090e-02  5.9414216525941019e-02  1.9179175376638738e-01  1.2043986780446528e-01  1.1334518353059028e-01  1.1294095744567412e-01  4.4114822145488855e-02  2.7815764289094896e-01  2.3747806714338690e-01  1.5908452284279104e-01  1.2052547910452206e-01  2.0946816889279260e-01  2.5185109332636230e-01  9.2503681885313604e-02  4.1511896807812393e-02  2.1014360738416538e-01  3.9461697873344317e-02  2.9041912727084290e-01  4.2041589144440124e-02  2.0689839147445757e-01  2.1233871769000542e-01  1.6672710390421822e-01  2.4008395470165519e-01  1.4880981938914048e-01  1.0463494194923217e-01  3.9671168893340249e-02  2.1399788922892032e-01  1.5919738822890026e-01  2.0998780708704573e-01  2.8527452956885452e-01  9.3461091086479098e-02  1.7798559771204581e-01  1.1872605936367014e-01  1.0713246220544836e-01  2.4455931522150609e-01  2.1290271086108253e-01  4.0750641503882690e-02  2.6825314436125230e-01  2.4552192532428532e-01  2.5704617020719667e-01  1.9227253016931620e-01  2.7039976877243616e-01  4.1821984667945865e-02  1.0277307943324351e-01  1.4052249314921672e-01  8.9025547770933147e-02  9.1275766310769571e-02  1.5792705947083030e-01  9.4888043845076542e-02  1.7816217632469283e-01  2.0423150035600293e-01  4.5701814979023092e-02  2.7417466873005286e-01  1.5996730287676347e-01  1.6217997074481919e-01  8.7631795452336361e-02  1.4480026760747636e-01  1.0400042875571096e-01  2.0589284828446233e-01  1.5628489326836875e-01  1.7779179016110758e-01  2.3918393388617717e-01  8.5355337929499217e-02  2.8918954125864205e-01  2.9336650073611931e-01  2.9998553813239642e-01  3.8588565829238780e-02  5.8405056574978000e-02  4.0386744502857577e-02  8.1202988353675190e-02  2.0642122835667337e-01  1.4352705541955829e-01  1.9207636244745896e-01  2.0307172546527727e-01  3.8638311787739632e-02  2.3775051326091196e-01  2.6342129906455675e-01  2.3240028657776451e-01  1.4183390807970087e-01  8.4512990384139536e-02  3.6920879810807293e-02  4.6389191651892717e-02  3.9910169726470338e-02  1.6010550471098908e-01  2.4028128321039147e-01  2.8126914863821040e-01  3.8658374492020767e-02  1.6189340717342784e-01  1.2572054426628079e-01  3.8674986332634470e-02  1.9445120923537976e-01  2.0964281339809857e-01  1.5761378657120675e-01  9.4554721579127449e-02  1.3765395171048450e-01  3.0011353575296162e-01  9.6189340551590966e-02  1.7171555355399107e-01  1.4063996238442586e-01  1.4578290632458310e-01  1.0698865471958031e-01  3.6572830343132655e-02  1.3004478423880256e-01  2.5267757505839589e-01  2.3352226252447694e-01  2.5813212721124690e-01  8.9631614011653191e-02  2.8451277480879550e-01  1.6997083566361068e-01  3.8245476285321482e-02  1.9277248494226001e-01  2.6316756590010321e-01  2.3341297037194633e-01  3.4456891861618565e-02  2.3496505626175496e-01  1.3004136235082017e-01  1.3380768990552661e-01  3.8520836493831097e-02  2.6636124148200124e-01  1.6672668306121544e-01  2.3686368111293604e-01  2.6037823240132707e-01  2.6379199175826418e-01  1.4682326449669614e-01  3.6477722790806806e-02  8.5840357487267621e-02  3.7661402637413487e-02  1.7010484813817894e-01  2.6845316458503310e-01  9.2416409641771946e-02  3.6637014787923604e-02  1.9982233593417498e-01  3.4544539336866603e-02  1.4114635261854325e-01  2.8112880041116056e-01  2.9742821581437406e-01  2.8431022250127613e-01  2.3912165469479038e-01  3.3371882452972165e-02  3.4215812649853974e-02  2.6530192967905680e-01  2.6303526074003675e-01  2.8081502343231640e-01  2.0653805782064119e-01  1.1293428348135036e-01  8.2230531825377345e-02  9.8965982721353249e-02  8.3641138503147458e-02  5.9057433566910969e-02  1.8526087833277141e-01  2.6307438724702997e-01  1.4554414261893611e-01  2.8362630877976858e-01  2.3746554956527169e-01  2.6495565240573515e-01  2.5554049375494536e-01  2.4325349375813055e-01  2.4390154769773470e-01  8.3101228218228157e-02  3.2427740893525792e-02  2.9495713432559351e-01  2.9114904986182882e-01  3.3117577081742948e-02  1.2167385440448036e-01  2.8039748276713378e-01  3.2221738837133036e-02  2.2858316489158939e-01  1.6095663560791990e-01  3.7148415715532172e-02  1.9346819515863029e-01  3.3920317951954437e-02  2.1026945391807045e-01  1.6065805472159106e-01  3.5520296919918155e-02  2.9816002345487536e-01  8.5999698828084628e-02  9.4742040812184375e-02  9.0788085957683382e-02  2.2592420220117837e-01  2.0841107963419742e-01  1.9548178146364886e-01  7.8282236380615267e-02  2.7274425973360383e-01  2.5903387087256269e-01  2.1090131761230879e-01  1.2613295923415585e-01  2.4687256727895565e-01  1.8990434480131610e-01  1.1320127713351576e-01  1.9413435266010950e-01  9.0237759125301090e-02  3.2195634162891479e-02  9.4452491658971793e-02  3.4272767464356868e-02  3.2891470888607388e-02  2.3282974171849843e-01  2.1355149477132393e-01  1.9443975483258233e-01  2.1986441130959641e-01  1.7870737612928719e-01  2.6137729618421252e-01  2.3357886672759043e-01  2.3511345972165812e-01  2.7675387367773147e-01  8.4200806660386734e-02  1.4107130614576316e-01  2.8440731948823478e-01  2.6316809565069116e-01  1.3385199999240055e-01  9.2186075821693525e-02  2.8576160180641941e-01  2.9256183676022074e-01  2.3466640393405230e-01  9.0652814839141907e-02  7.2898711039089834e-02  3.4666985281176448e-02  3.4476089136310263e-02  2.4479909361245480e-01  1.7521196745244230e-01  1.8238106988658737e-01  1.1516644363469482e-01  2.0681491016952944e-01  2.5686613758621663e-01  7.5501460431572479e-02  1.3470336720150566e-01  3.1457573902574379e-02  1.5775065478430370e-01  2.5852554422183954e-01  4.7279152904665014e-02  1.3206586865837183e-01  2.9792929061819295e-02  3.2152255382404488e-02  2.7571736839694921e-01  2.3054240233194770e-01  2.8085903326990724e-01  9.7127899105395515e-02  8.6015456983487670e-02  8.7939426354356171e-02  2.6067668874522776e-01  2.4472836139602772e-01  2.1886830977908037e-01  1.0321787705958350e-01  3.0449597922074006e-02  2.9493652107467114e-02  1.2083707974193919e-01  1.5041803617607921e-01  2.2736442009232494e-01  1.6522382103170008e-01  1.4137932029000713e-01  1.1938620093103172e-01  1.1468003856469389e-01  1.3143441933489408e-01  1.1265268421867618e-01  1.1047440098123029e-01  2.8896056645710494e-01  3.4183305717163347e-02  6.8732099389211682e-02  2.3592006145982397e-01  2.6926586475168929e-01  2.5146565771300816e-01  1.2811762025199086e-01  1.1858407683239809e-01  5.8522855957065113e-02  1.0133723491013578e-01  1.6150131638893458e-01  2.0297501901500997e-01  9.9870093903520224e-02  7.9054232049974554e-02  1.8822844782921555e-01  2.9729551791098180e-01  6.9969116216788682e-02  1.4382551598929177e-01  7.0698958619489050e-02  3.1549761815657273e-02  7.3744028006005588e-02  2.0125534413592430e-01  1.1714638620737811e-01  1.2231705909764520e-01  3.2808320652793738e-02  2.3982094756375352e-01  1.4205121162808962e-01  1.5386015544247553e-01  2.0841562434593991e-01  2.0999620837580935e-01  2.3677840424778160e-01  1.1790861700655735e-01  7.7475017356131992e-02  8.3372493470795450e-02  1.4729809507954691e-01  1.2771745286183675e-01  1.6904140256556088e-01  2.7934602504625516e-01  2.0674168873511695e-01  1.5326713353401211e-01  1.2839902943503187e-01  1.5776089789046324e-01  1.6668614700279158e-01  8.3912900269835014e-02  8.6332743569199732e-02  1.2368620537290403e-01  1.5637846843921868e-01  2.5508080329380128e-01  1.8583538998091784e-01  1.7356531742777279e-01  8.1699875354852888e-02  2.3263803670837088e-01  2.5810751056479758e-01  2.2372929210296644e-01  2.2318638138864014e-01  2.0402302788703228e-01  2.4950291246925121e-01  1.4599743171615215e-01  1.2025546406025435e-01  1.6386640393570748e-01  2.9017062990153174e-02  2.5280315116411595e-01  2.9383653919860152e-02  1.4840031439038825e-01  2.2529705470806477e-01  6.4241366427995841e-02  1.1403708804038287e-01  1.6184470690664834e-01  1.2010808865120878e-01  8.0598718555135770e-02  2.7723760866189234e-01  2.8637127669431528e-01  2.1566630777697315e-01  6.6376956803761544e-02  2.7719327457964249e-01  2.9865675018988527e-02  6.8910151940516653e-02  3.0735035968497450e-02  6.5894805812165252e-02  6.9995949510470001e-02  1.1794554353874259e-01  7.5910682933387846e-02  7.1935590482382974e-02  1.1470970001939669e-01  2.9508794785069864e-01  2.9735185903351381e-02  1.1669382207491584e-01  1.7401617870382752e-01  2.8630988079301964e-02  2.4446912868938767e-01  2.2242743998005163e-01  7.0460908312742376e-02  1.6028914048687457e-01  2.7485134725329274e-02  6.7944560241879337e-02  1.2415880284451081e-01  2.9096078782198337e-01  2.8830949604992395e-01  1.1059742208535103e-01  1.9027417187744558e-01  1.7639331042594089e-01  2.9631989542268289e-01  2.9413958316983724e-01  2.9090960121718035e-01  2.11745