<?xml version="1.0"?>
<VTKFile type="UnstructuredGrid"  version="0.1"  >
<UnstructuredGrid>
<Piece  NumberOfPoints="48" NumberOfCells="130">
<Points>
<DataArray  type="Float64"  NumberOfComponents="3"  format="ascii">0 0.3076461882255092 0.946641831668063  0.8390735365359996 -0.2048613424938509 0.9778212737458538  0 -0.3076461882255039 0.9466418316680646  0.531992401683702 -0.236483445080518 0.3228047890808533  0.7038816734996611 -0.5861347491156008 0.806385962190618  0 -0.8065970460793452 0.585877542652992  0.9194533905374678 0.5861347491156014 -0.8063859621906176  1.004418682883515 0.001109974122828428 -0.002795400028503259  0.5610463295956879 0.3800134324387933 -0.1785720694361426  0.7146070658082344 0.1820815858914777 -0.9820665290800503  1.42372916157647 -0.2539844475361353 0.3498705792586632  1.471640883711892 0.1841820102590249 -0.3525923165165998  2 -0.905397548469539 -0.4172607924959912  1.216605136765853 -0.7321904312984759 -0.6765422650905474  0.5720052097265838 -0.3232321736617423 -0.2746585571345088  0.7631312411594542 -0.9467519706416923 -0.3072831086878679  0.7051819374547734 -0.5967649048591401 -0.7976620188286898  0 0.8065970460793455 -0.5858775426529915  0 0.3076461882255046 -0.9466418316680644  1.284959687016016 -0.9856751621752424 -0.1454425192096276  2 -0.9807852804032301 0.1950903220161294  1.299288476063125 -0.782579645377683 0.6151428300834265  0.9791218065097678 -0.9467519706416913 0.3072831086878711  2 -0.6767994715531573 0.731979347409748  2 -0.1170541932096758 0.9884711682419384  1.216605136765853 -0.4175542372323685 0.9052406989901591  1.449188621937132 0.3384323398204605 0.2329864469478745  1.020914668286937 0.1950903220161292 0.9807852804032302  2 0.03958085226358687 -0.08038469816587773  2 -0.4864155127577975 -0.8684335803860417  0 0.8065970460793497 0.5858775426529864  0 0.05450259393629062 -0.07111828751697291  0.8146906921942224 0.714943612543393 0.6975575745487927  1.026208638966963 0.9830734825447693 0.1718578157917925  0 -0.9999999999999999 8.719246176613541e-16  2 0.9053975484695387 0.4172607924959919  2 0.9807852804032304 -0.1950903220161282  1.290963035931445 0.8424743306517328 -0.5349818530794679  1.352112614363568 0.4175542372323676 -0.9052406989901598  2 0.1170541932096755 -0.9884711682419384  1.020914668286937 -0.1950903220161295 -0.98078528040323  2 0.4864155127577979 0.8684335803860415  1.325041298016838 0.7321904312984757 0.6765422650905477  0 -0.8065970460793465 -0.5858775426529904  2 0.6767994715531562 -0.7319793474097489  0.7475829472756774 0.9306562046108482 -0.3603437383260175  0 1 0  0 -0.3076461882255061 -0.9466418316680639  </DataArray>
</Points>
<Cells>
<DataArray  type="UInt32"  Name="connectivity"  format="ascii">0 1 2 3  2 3 4 5  6 7 8 9  10 11 12 13  13 14 15 16  6 8 17 18  19 20 21 22  10 23 24 25  10 24 26 27  11 12 28 29  7 8 9 14  3 8 30 31  7 8 32 33  14 15 22 34  1 3 7 27  10 11 12 28  26 33 35 36  6 8 11 37  11 38 39 40  1 3 7 10  10 20 21 23  10 21 23 25  11 12 13 29  11 13 29 40  24 26 28 41  7 11 13 40  10 20 23 28  10 11 26 28  26 32 33 42  10 24 25 27  14 15 34 43  26 28 35 41  6 7 8 11  11 28 36 44  4 10 21 25  10 19 20 21  11 38 39 44  7 9 11 40  9 11 38 40  10 24 26 28  11 37 38 44  8 9 14 18  0 1 3 27  11 28 39 44  6 8 17 45  11 36 37 44  3 7 8 14  3 4 10 25  6 7 9 11  26 35 41 42  11 26 28 36  11 26 36 37  3 7 8 32  0 3 30 32  3 5 22 34  6 11 37 38  6 8 9 18  10 23 24 28  30 32 33 46  7 10 11 26  11 29 39 40  7 10 11 13  3 14 22 34  0 2 3 31  0 3 30 31  11 28 29 39  3 4 10 22  0 3 27 32  14 15 19 22  7 14 19 22  3 7 14 22  1 2 3 4  24 26 27 41  9 16 40 47  1 3 10 25  1 3 4 25  3 7 10 22  26 28 35 36  6 9 11 38  10 12 20 28  10 12 19 20  8 17 18 31  3 5 31 34  7 26 27 32  26 27 32 42  3 8 30 32  8 26 33 37  14 31 34 43  14 31 43 47  8 14 18 31  14 16 43 47  14 15 16 43  7 8 26 37  8 17 45 46  3 14 31 34  7 9 14 40  9 14 16 40  14 18 31 47  9 14 18 47  10 19 21 22  7 10 13 19  7 10 19 22  13 14 16 40  3 8 14 31  9 14 16 47  7 13 14 19  7 13 14 40  7 8 26 33  7 8 11 37  7 10 26 27  1 7 10 27  1 10 25 27  13 14 15 19  26 33 36 37  10 12 13 19  4 10 21 22  7 26 32 33  7 11 26 37  8 30 31 46  8 17 31 46  8 32 33 46  8 33 45 46  8 33 37 45  6 8 37 45  26 27 41 42  8 30 32 46  2 3 5 31  3 7 27 32  26 33 35 42  3 4 5 22  </DataArray>
<DataArray  type="UInt32"  Name="offsets"  format="ascii">4 8 12 16 20 24 28 32 36 40 44 48 52 56 60 64 68 72 76 80 84 88 92 96 100 104 108 112 116 120 124 128 132 136 140 144 148 152 156 160 164 168 172 176 180 184 188 192 196 200 204 208 212 216 220 224 228 232 236 240 244 248 252 256 260 264 268 272 276 280 284 288 292 296 300 304 308 312 316 320 324 328 332 336 340 344 348 352 356 360 364 368 372 376 380 384 388 392 396 400 404 408 412 416 420 424 428 432 436 440 444 448 452 456 460 464 468 472 476 480 484 488 492 496 500 504 508 512 516 520 </DataArray>
<DataArray  type="UInt8"  Name="types"  format="ascii">10 10 10 10 10 10 10 10 10 10 10 10 10 10 10 10 10 10 10 10 10 10 10 10 10 10 10 10 10 10 10 10 10 10 10 10 10 10 10 10 10 10 10 10 10 10 10 10 10 10 10 10 10 10 10 10 10 10 10 10 10 10 10 10 10 10 10 10 10 10 10 10 10 10 10 10 10 10 10 10 10 10 10 10 10 10 10 10 10 10 10 10 10 10 10 10 10 10 10 10 10 10 10 10 10 10 10 10 10 10 10 10 10 10 10 10 10 10 10 10 10 10 10 10 10 10 10 10 10 10 </DataArray>
</Cells>
<PointData  Scalars="f_21-3"> 
<DataArray  type="Float64"  Name="f_21-3"  format="ascii">-7.0633135556894655e-01  0.0000000000000000e+00  -7.6768905394163656e-01  -6.5373106607690668e-01  0.0000000000000000e+00  -9.0981325209434194e-01  0.0000000000000000e+00  -7.9866496102512186e-01  -5.9600145256607628e-01  0.0000000000000000e+00  -5.6184121206020832e-01  -5.3969632855172123e-01  -6.0853584108213665e-01  0.0000000000000000e+00  -6.2783490724853719e-01  0.0000000000000000e+00  0.0000000000000000e+00  -8.1763787418004663e-01  -7.8541256235855250e-01  0.0000000000000000e+00  -5.4598955269728422e-01  0.0000000000000000e+00  0.0000000000000000e+00  -5.2532739591705657e-01  -4.8110165649673509e-01  0.0000000000000000e+00  -5.1782137992282551e-01  0.0000000000000000e+00  -5.6753605662080386e-01  -7.2507787884596475e-01  -6.2223759762180109e-01  -8.5223707075753541e-01  0.0000000000000000e+00  0.0000000000000000e+00  -9.7162327108582469e-01  -4.0893144668333997e-01  -4.4868416950895973e-01  0.0000000000000000e+00  0.0000000000000000e+00  -6.8755842495342456e-01  0.0000000000000000e+00  -4.1326862551387389e-01  0.0000000000000000e+00  -9.8914056698555686e-01  -5.3465457550098638e-01  0.0000000000000000e+00  -7.7966952591143335e-01  -8.3254587960911630e-01  </DataArray> 
</PointData> 
</Piece>
</UnstructuredGrid>
</VTKFile>