<?xml version="1.0"?>
<VTKFile type="UnstructuredGrid"  version="0.1"  >
<UnstructuredGrid>
<Piece  NumberOfPoints="1134" NumberOfCells="2149">
<Points>
<DataArray  type="Float64"  NumberOfComponents="3"  format="ascii">-0.5441219212998575 -0.358688083414564 0  -0.5765776306118481 -0.3686864440037019 0  -0.5569902787287407 -0.3268101618816875 0  -0.8410975717287933 -0.1395072905294205 0  -0.8354859562490059 -0.1121393047518148 0  -0.8160414078151036 -0.143940225846131 0  -0.2532586164762539 -0.4337438936396583 0  -0.2604143965391758 -0.3998650934601126 0  -0.2797158256545105 -0.4216369957322594 0  -0.1025954134604321 -0.4546232205523414 0  -0.1266730491007733 -0.4918819546073589 0  -0.09691916730404182 -0.4847005572060625 0  -0.7940852375801325 -0.07137316872466712 0  -0.8129656909437549 -0.04165552122524915 0  -0.7656060483003411 -0.05182846953038278 0  -0.4373093509364797 0.001634310771041625 0  -0.4640165526929844 0.008695773119353517 0  -0.4329343824233777 0.0290702357416256 0  0.1199221538977548 -0.9000079375435778 0  0.1431677361889669 -0.9417704170872273 0  0.1056882459418261 -0.9304575809500495 0  0.06824102899309431 -0.8796965027637446 0  0.0519845080383419 -0.9104794197143635 0  0.03857802175663441 -0.8837154177433899 0  -0.03165678354576521 -0.2907079637490915 0  -0.04714016004606073 -0.2525292510384027 0  -0.06022108807420518 -0.2800632191856926 0  -0.09822467029515634 -0.7285165233009198 0  -0.1119313494050668 -0.6971613808680818 0  -0.1326310079111961 -0.718115325281744 0  0.3007311546569934 -0.7132751337163624 0  0.268649511610813 -0.7227605910392395 0  0.3051159099885882 -0.74565385731203 0  -0.3666163925164496 -0.5816141831357999 0  -0.3691133504593386 -0.6228377920227477 0  -0.402301941823315 -0.5984340698406342 0  -0.3913506256423302 -0.5142670598452614 0  -0.4250310656908753 -0.5266367026041526 0  -0.4159211932663701 -0.502553863198151 0  -0.2727357442370261 -0.1139698713880369 0  -0.2943017683746092 -0.1565196089387307 0  -0.3063227185248055 -0.1236867182352507 0  -0.2968302873539247 -0.4466149365476618 0  -0.2799475439007661 -0.4802073939810227 0  -0.2624121975818798 -0.4593829131919249 0  -0.7454603311488852 -0.5423613958312614 0  -0.7103791313606034 -0.5507540080827487 0  -0.7228418780588967 -0.5253322268461387 0  -0.2155186650080483 -0.4084486310043501 0  0.1877994808039191 -0.4789624818228146 0  0.18857227839039 -0.5115637934749382 0  0.164906824444952 -0.4974715723303403 0  -0.5535428208305013 -0.2292849437422536 0  -0.5648012582384903 -0.2696014635242177 0  -0.5917829336642244 -0.2371162115705051 0  -0.3350033003568829 -0.7359157713821145 0  -0.3584096184419623 -0.7678723640737219 0  -0.3283212549976047 -0.7709913427707766 0  -0.166193953523619 -0.4717314232244936 0  -0.1702025126876615 -0.4295335658824921 0  -0.1385274804499625 -0.4478139398932881 0  -0.8478530373173159 -0.046397161777502 0  -0.887198166494877 -0.0655626578819532 0  -0.8577071879977455 -0.07267113318337655 0  -0.3099359594350449 -0.7950125531888582 0  -0.2751475593023677 -0.7596201914282705 0  -0.306130994928509 -0.7504333759224151 0  -0.274329400818586 -0.8766984697653405 0  -0.3038839355727364 -0.8409778359044735 0  -0.2629258197877798 -0.8371766448902915 0  -0.5553672154460828 0.1314190645461342 0  -0.5461213685775101 0.08606836292998724 0  -0.5703826334799396 0.1047399587464832 0  -0.3455696877361558 -0.4362448378226669 0  -0.3258580942965404 -0.4093110514399137 0  -0.3609297973707213 -0.4075234269722106 0  0.0815758327469593 -0.2844987878142674 0  0.1038721286438136 -0.3192060348676103 0  0.1154745574315511 -0.2708647663994368 0  0.08604300669319788 -0.3545557692735667 0  0.0643116231438611 -0.3207705529051588 0  0.1295464534015014 -0.3939636575994285 0  0.1064338617198637 -0.4124464014104867 0  0.1448361757922854 -0.4208559592839465 0  -0.3039688822958979 -0.06416621281764143 0  -0.2711500678832953 -0.07828007751554661 0  -0.2754333760943877 -0.0480766159912839 0  -0.8852110950197181 -0.2137091567995184 0  -0.9236289974331147 -0.2217362706346047 0  -0.885122883614721 -0.2467618146896367 0  -0.7301573753217775 -0.5809193455547783 0  -0.7209730744814395 -0.6238872753123897 0  -0.6950428051256249 -0.5983052377397224 0  -0.6979193891197244 -0.3546402351623636 0  -0.7138531650202711 -0.3307417459363939 0  -0.6743728412343886 -0.3384522276757841 0  -0.8291530868949156 -0.3094176941438118 0  -0.7896920172208287 -0.3008184215994915 0  -0.8053238789699632 -0.3239263958397401 0  -0.642138544674596 0.01257226564310446 0  -0.6878262986643295 0.02886723136166872 0  -0.6526160876609264 0.05539242199523189 0  -0.1266635457260406 -0.08674110354568812 0  -0.1635254523745491 -0.08816857548143278 0  -0.1325884900385813 -0.1135548225961865 0  -0.1706755439590506 -0.1568763186035039 0  -0.1258516062977613 -0.1401761466032385 0  -0.1455336670512015 -0.1721333993142492 0  -0.4071712888596457 -0.1971673901732101 0  -0.4206722921022882 -0.2196895306739997 0  -0.3863062381333997 -0.2122001525785641 0  0.1253379956719456 -0.8371358306598619 0  0.1322411385722026 -0.8061167926585079 0  0.1479475933651601 -0.825889841457792 0  0.2934164918890293 -0.8612774348549732 0  0.3227623235642592 -0.871538612125301 0  0.2822172595041592 -0.8910264873869124 0  -0.2061434166370174 -0.4520053066724423 0  -0.2333317737902565 -0.4522421037727033 0  -0.1571382082759987 -0.7950905585620359 0  -0.1218264222929869 -0.8096543748250079 0  -0.1458876500424629 -0.7688446150262466 0  -0.6774939983300903 -0.6302248068985857 0  -0.6463983005318535 -0.6642643784626333 0  -0.6470760980630753 -0.635376377384978 0  -0.9238680557959388 0.1659280723833087 0  -0.9355506157828866 0.2068678302057455 0  -0.9051323095323698 0.1934112459210854 0  -0.6291120070625913 -0.03469761255245083 0  -0.6686754428094558 -0.02017057174366552 0  -0.614649649400687 -0.2054816055707221 0  -0.6359155503292063 -0.2424224662444199 0  -0.4738807575056957 -0.01710803163056955 0  -0.5057545180527914 0.01973141337738394 0  -0.5106957648776452 -0.0138485558013659 0  -0.2270263162209431 -0.9111383718152852 0  -0.2409410440392607 -0.8805449402730079 0  -0.2087104940359062 -0.8843467210900062 0  -0.03649879830564495 -0.7024508719317977 0  -0.05434316291145553 -0.7463128781214077 0  -0.06837436388434862 -0.7179116564338537 0  0.02271111445801087 -0.2466006138022283 0  0.04921455287866645 -0.2136283899225227 0  0.001287880775235811 -0.213280315875006 0  -0.08819145914922825 -0.2560134861104798 0  -0.08294274772807189 -0.2116891776520932 0  -0.1174923456135461 -0.2244044812744155 0  -0.5416135842843132 -0.4433680349964033 0  -0.5466266768312872 -0.4074183480198355 0  -0.5764599568157619 -0.4465298604780202 0  -0.5723784974555806 -0.7508609640271169 0  -0.5578509213974128 -0.7135211595210424 0  -0.5853593329972577 -0.7221437485714772 0  -0.2120900412591529 -0.4820426978058877 0  -0.1866638372586035 -0.4879174965664346 0  -0.2344655869365065 -0.5518887928560327 0  -0.2232202113522217 -0.5843276522251416 0  -0.2019937614081083 -0.5441247067071635 0  -0.4975666954863948 -0.134795490103003 0  -0.5060921069087164 -0.08984808156695877 0  -0.5428072582908655 -0.1224237198472427 0  -0.3820378504744532 -0.07720900165447629 0  -0.3768681022823627 -0.03162498317288738 0  -0.3450701945451619 -0.05831639246971808 0  -0.5815381566199812 -0.1488753121763688 0  -0.6037984335336571 -0.1128166049525345 0  -0.5730811055580373 -0.1162124343825699 0  -0.7829900343778728 -0.3406456350858423 0  -0.9938441702975689 0.07821723252011555 0  -0.9907662554463532 0.1173258487801733 0  -0.9615686525209594 0.0953525208886026 0  0.0231928155670889 -0.1802746947302631 0  0.02304601464950326 -0.1450050219121411 0  0.004161121639675046 -0.1627187673287056 0  0.1294695806058722 -0.1777167641614958 0  0.1199760160677406 -0.1471804808004611 0  0.1015414005360553 -0.170729792421993 0  0.01585239978995566 -0.3534535003367468 0  -0.03178540446998922 -0.3576696617950668 0  -0.006497935904761709 -0.3721547028134982 0  -0.5428943701632762 -0.5556008459889474 0  -0.5625322794123481 -0.5239646311849037 0  -0.5344364592045275 -0.5204671722590559 0  -0.5770363405682046 -0.5686103056888767 0  -0.8840529801908102 0.07503033614843499 0  -0.854299198160419 0.05793764956431513 0  -0.8800080944261081 0.04762837752702911 0  -0.1174909263566684 -0.7718530525879488 0  -0.1763497559915594 -0.8818881596967517 0  -0.1698226233396077 -0.8378079409605544 0  -0.1937651770766264 -0.856786030724175 0  0.2529312799413386 -0.8012992728399679 0  0.2975684718453496 -0.8148220276284073 0  0.281642659294784 -0.7869587443019139 0  0.2144627031643363 -0.8917499236169515 0  0.2237873953233911 -0.9306213313090586 0  0.2347105033463606 -0.9074469009724188 0  0.02990886030073693 -0.6935332302827742 0  0.001158975109081618 -0.7311595646329223 0  0.03909134584814009 -0.7413311838754355 0  0.1588281316310452 -0.6615667801666836 0  0.1163965659875906 -0.6560203066685862 0  0.1406579619500511 -0.6957617206677086 0  -0.1241303955199356 -0.5682811077586559 0  -0.1227163133898359 -0.5343224432690959 0  -0.0875844305370822 -0.5509712758131395 0  0.2964390745302059 -0.4640277723462716 0  0.2569474812884434 -0.4728699081009705 0  0.283870811463501 -0.4866722052249291 0  0.2728222534553556 -0.5100957178319351 0  0.2455628306779195 -0.4973926927016669 0  0.2660995786479711 -0.5470486645584501 0  0.2465825874663043 -0.5244100450920918 0  0.2397701647893647 -0.550015317190814 0  0.0825405358755302 -0.6298483683324381 0  0.0877814960857464 -0.5885354120358075 0  0.06444242247063409 -0.6065635301263742 0  -0.6485729167868159 -0.1991468077150175 0  -0.6302378419866136 -0.1751544796858254 0  -0.7598339638778754 -0.3162715135673669 0  -0.7543728454763795 -0.2877235541198104 0  -0.1597243371445307 -0.1177650834275732 0  0.0455101775939576 -0.1178143478783519 0  0.01379263872750023 -0.1184911964587452 0  -0.019854766658668 -0.570384483292773 0  0.01002779297466803 -0.5953415153613334 0  -0.01592059019181793 -0.6089086201959784 0  0.09132515280281757 -0.6906991960991645 0  -0.4090925062851792 -0.021831
[...]
<PointData  Scalars="f_2282-2"> 
<DataArray  type="Float64"  Name="f_2282-2"  format="ascii">2.6904939719544740e-01  2.4252886123949430e-01  2.7366345462467834e-01  1.0752931045159807e-01  1.1509728517465137e-01  1.2649738705642788e-01  3.8571584445214763e-01  4.0393844392505629e-01  3.8295697829879310e-01  4.1201821315740267e-01  3.8153500775209120e-01  3.9154482115355221e-01  1.5121653724946924e-01  1.3793180477265127e-01  1.7532808261759925e-01  4.3217071858762535e-01  4.1326378641665917e-01  4.3431623673302494e-01  6.4854680618128921e-02  3.2462089244995919e-02  4.4143159525466720e-02  8.4628727907384405e-02  6.1986852480943634e-02  8.3089835178701485e-02  5.1976308212693811e-01  5.3681050990528623e-01  5.2270215661844099e-01  2.0146989525617864e-01  2.2498535443922338e-01  2.0519111740103643e-01  1.6999775883055682e-01  1.7234138353274164e-01  1.4457485676177176e-01  2.3994307637720511e-01  2.1045728821632723e-01  2.1266378496276089e-01  2.7341894557927976e-01  2.4866516460183680e-01  2.6843794757508571e-01  5.1796160447979911e-01  4.9777950592296605e-01  4.9922217407025471e-01  3.6035614736955573e-01  3.4495895265160537e-01  3.6547529089566877e-01  5.4993925962374825e-02  7.2029487288920141e-02  7.5929350545255819e-02  4.1525044689322338e-01  3.7653993358737126e-01  3.5331591533695356e-01  3.6919556423219441e-01  3.1110977937569623e-01  2.8991597573046340e-01  2.8037027767306816e-01  1.4256811778614936e-01  1.1147261501098071e-01  1.1881057947139650e-01  3.8736593969226796e-01  4.1500978135512073e-01  4.1008677360596024e-01  1.1024973849619078e-01  7.9211468735821439e-02  1.0120399021925056e-01  1.0721478627528180e-01  1.4281105551054796e-01  1.4060852598701776e-01  5.7382777563305606e-02  7.5865055437311604e-02  8.8269842245643368e-02  3.3343678957740547e-01  3.4740842587410642e-01  3.2636256291096993e-01  3.4454542021509960e-01  3.7009987060659860e-01  3.5382607718193826e-01  5.1801065653946265e-01  4.9630553134924332e-01  5.1873478953377361e-01  4.7912678088653032e-01  5.0106511709300561e-01  4.4749869555388616e-01  4.3966676407730776e-01  4.2661716771109448e-01  5.1006141945350936e-01  5.2470018467235868e-01  5.2603983333074733e-01  6.3259188867419422e-02  3.4037901006443792e-02  5.7061101246700122e-02  4.6661579944077700e-02  3.1235078353337140e-02  5.8415353265468269e-02  1.6295656217372653e-01  1.5958813194873658e-01  1.8565816385790204e-01  8.2763883054535858e-02  1.1359452531979479e-01  9.5493021095780645e-02  2.7677654154272752e-01  2.3919766594121433e-01  2.6634044292537740e-01  5.7559390706334412e-01  5.6532606109626848e-01  5.6902023973508997e-01  5.4809909785943256e-01  5.6475130139776719e-01  5.5019461507292367e-01  4.2164045297280661e-01  4.0581523459295954e-01  4.2961232817183675e-01  1.1228944108465938e-01  1.3584424879312762e-01  1.1794671494915611e-01  6.3840396729309662e-02  4.9294711592237202e-02  4.5587376607856757e-02  3.8970836841595058e-01  3.8061134093497312e-01  1.4080696631849385e-01  1.3415281806739648e-01  1.6306104794144857e-01  5.2528719426006988e-02  5.1306106327259141e-02  6.5850959910109641e-02  4.2776130552915480e-02  2.8048912706616670e-02  5.1984323676913427e-02  2.8633038021377466e-01  2.5507198136541853e-01  2.7186337865257842e-01  2.4581322462367472e-01  4.0623429180714732e-01  3.8297816021370595e-01  3.7918403820385632e-01  4.1943005995466749e-02  6.1329625685777100e-02  6.4792084015095203e-02  2.2704836999665562e-01  1.9065638597053469e-01  2.1262658018337904e-01  5.4114381440426562e-01  5.5311691078139469e-01  5.5546253104643584e-01  5.3042870878049986e-01  5.4970237338477090e-01  5.3860781982387063e-01  2.2981903279057192e-01  2.4475888786809452e-01  2.0601893975225077e-01  3.8693564899483279e-02  6.6788301678707349e-02  4.8885919600392957e-02  3.6754438820464930e-01  3.7053729995027035e-01  3.1042140755725289e-01  2.9019672954062753e-01  3.2588627473540871e-01  3.7598337450089553e-01  3.7704339900853601e-01  3.4461281632202617e-01  4.6364575594442731e-01  4.7102470321729184e-01  4.8806464712195025e-01  3.1024541792600535e-01  2.9913799942852914e-01  3.2246638216723539e-01  1.0673564982033501e-01  0.0000000000000000e+00  0.0000000000000000e+00  2.2291342271174353e-02  5.6691201332029173e-01  5.7719241870716598e-01  5.7247729060392860e-01  5.5291284351981407e-01  5.6383514805968582e-01  5.6067307737207395e-01  4.8567943949125525e-01  4.8287094656266077e-01  4.7441244848143804e-01  1.6761745329481859e-01  1.7404100586198090e-01  1.9278566201216141e-01  1.4106626535382993e-01  8.0881815975156188e-02  1.0493828002924886e-01  8.5329498167092926e-02  1.6453030756251805e-01  7.1618455268061293e-02  1.0607618725331432e-01  8.7393093208629896e-02  1.1723230845447954e-01  9.6023398712553748e-02  1.2085322409408672e-01  5.8400024574540042e-02  2.8574290063014682e-02  4.3287881529204666e-02  2.3459181236977233e-01  2.0452253502139375e-01  1.9549249381610267e-01  2.4570933960248695e-01  2.5728701584576325e-01  2.2192424573225622e-01  3.2493547250585880e-01  3.5096876769418239e-01  3.4343294601559671e-01  3.4899215259500593e-01  3.5870761919582317e-01  3.3920129286284018e-01  3.2742329012038129e-01  3.4590089073234759e-01  3.0365565256080967e-01  3.2656772959416619e-01  3.1048270898608704e-01  2.8230241456635358e-01  3.1443494943646466e-01  3.0230409765157668e-01  2.4735773549062418e-01  2.6698088279858462e-01  1.3072392362563742e-01  1.4313919837980846e-01  5.6074363170011965e-01  5.8274101127474920e-01  5.8398878593806136e-01  3.3350052678859565e-01  3.1408056886923719e-01  3.0301422340574485e-01  2.3260327820455501e-01  4.5057140510381005e-01  4.5498273367392295e-01  5.2043023199310112e-01  0.0000000000000000e+00  0.0000000000000000e+00  2.0779070582231812e-02  5.6481880496962220e-02  7.4666797315779812e-02  5.1468512508235455e-02  1.4678823460124926e-01  1.6393862507483153e-01  2.9603962355492584e-02  3.0778482480227447e-02  1.4803227674766948e-02  3.7583367413657259e-01  3.4748046987175385e-01  3.5469776658601626e-01  3.8861801995911377e-01  4.0387032259570177e-01  3.8142593651822460e-01  1.3349741589265648e-01  1.0194835891311690e-01  7.6222707392900532e-02  8.6860396640858414e-02  5.3604498073093065e-01  4.3639749657128091e-01  4.2397410481839448e-01  4.1802129829195966e-01  4.5595939248685430e-01  4.7046433333624083e-01  4.6451330666843887e-01  4.8483226777278643e-01  5.0502410938930498e-01  5.0015374024962056e-01  2.2150457666331264e-01  1.9189107657973833e-01  2.1044622490740164e-01  2.7216982997981515e-01  2.7430716848708314e-01  2.4850263467802816e-01  1.8436849860818871e-01  1.8537320113543185e-01  1.8578354646590015e-01  1.8592222889782350e-01  4.0534718545339471e-01  4.1513867440655228e-01  4.2188648294879599e-01  4.5264136959080736e-01  4.6471644443334276e-01  4.3403223703926475e-01  2.0769553545804001e-01  1.8896792506426868e-01  1.8231298991597705e-01  3.4504449862168601e-01  3.3682577235746713e-01  3.6106782990573566e-01  2.7021377197313989e-01  2.5956997177979835e-01  2.9622338228955897e-01  2.6500600686744274e-01  2.3640518326413254e-01  2.6528516927043849e-01  2.0780193798934854e-01  2.9935672751027542e-01  2.6441561120648638e-01  4.1272284456899663e-02  3.1564579668274362e-02  6.0108433327001200e-02  4.6072373124031687e-02  7.9399112805697530e-02  5.7910487336912196e-02  7.5222899120462733e-02  2.3129805644102527e-01  1.3979833359435451e-01  1.3920813505871979e-01  1.7061341513608308e-01  2.3124139436394822e-01  2.1220404778066318e-01  2.0177489209940294e-01  1.7932247980078928e-01  1.7291313940630276e-01  2.9210261317554664e-01  2.8775574373471424e-01  2.6952371063061981e-01  3.1293622309105140e-01  2.9353592239756060e-01  2.9131910143578221e-01  3.2208834226177890e-01  3.0210298027664378e-01  3.1198853189017761e-01  2.3034235395600317e-01  2.5000208605351926e-01  2.5332838313218553e-01  1.1470632336765728e-01  9.7020511334936346e-02  1.2187650940693100e-01  9.8369128771306796e-02  2.1660012895507538e-01  2.4440104927868100e-01  2.1680211613553363e-01  2.7514736837548004e-01  2.3574657436457561e-01  2.1529699882569917e-01  2.5161464635925795e-01  1.8326049421504295e-01  1.9124130356120933e-01  2.1161705839452469e-01  1.9649552008748086e-01  2.2052660043531208e-01  1.9348751022028621e-01  1.5626204187663559e-01  1.4736322132031071e-01  1.7345672597289094e-01  3.5784670152205816e-01  3.5293538089565202e-01  3.6937434637264349e-01  3.9144943924426928e-01  4.0104025097813395e-01  2.7208732917536632e-01  2.3576310555381663e-01  2.4362023863547549e-01  6.5466344854814673e-02  7.6554524287293105e-02  5.4524287866773616e-02  1.0620559279219363e-01  1.0672532189954057e-01  4.8135717662670503e-02  7.0023192006017559e-02  4.7818119812960032e-02  0.0000000000000000e+00  0.0000000000000000e+00  2.4155743058020922e-02  1.0033204716148529e-01  7.9514062648702546e-02  1.1004123608068593e-01  4.3588117002723231e-01  3.4843136082219112e-01  3.7630521166663017e-01  6.2945091524103991e-02  3.0013660778492966e-02  4.3057018059635271e-02  3.8760185181422262e-02  6.1288781538364631e-02  0.0000000000000000e+00  2.5816083217849596e-02  2.2370808694457320e-02  3.0001563787330326e-01  2.6215475962351226e-01  2.3207680804148664e-01  1.7166005291712704e-02  3.6204584861031647e-02  0.0000000000000000e+00  1.7467851373563107e-02  5.5499834009091908e-01  5.3602790314421012e-01  5.4302879434833695e-01  2.8223381583223650e-01  2.9248426535687860e-01  2.6683031042793764e-01  3.0356604299492412e-01  2.8112509833766675e-01  3.2009270675725293e-01  3.6660864332153587e-01  3.7531820941084482e-01  3.5520013452561205e-01  4.2377343688829699e-01  4.1712447701558963e-01  3.9651500871788586e-01  4.2261543740607826e-01  4.0720161855321513e-01  4.1716512950917689e-01  4.2285074161404129e-01  1.1866871144947777e-01  1.2487726265323447e-01  1.0823923494072965e-01  2.6385406337243011e-01  2.3557262450077782e-01  7.3684144947660568e-02  5.2190183084103274e-02  1.6655896147460922e-02  5.3011382061100876e-01  5.3886748323672584e-01  3.3003947092234899e-02  1.6869893654934579e-02  2.3444045509735137e-01  2.1358227183767756e-01  4.0495394169779764e-01  4.2673744208938985e-01  4.0212755617907830e-01  3.4584250943993211e-01  3.6737465631522265e-01  3.4216675522494028e-01  3.5765944394756649e-01  3.7117564604779457e-01  3.9009663790435239e-01  3.5901243372374758e-01  2.9012376860867012e-01  2.5255445263686738e-01  2.6522222322407585e-01  2.8319009619623386e-01  3.0573818578389633e-01  8.1303154634987745e-02  9.4004987256651795e-02  4.2818154439059819e-01  4.4575234366627342e-01  4.2612901266328024e-01  3.3511262756221194e-01  2.5977776491298205e-01  2.1433468385559543e-01  3.0252539207833731e-02  2.8109024743300574e-02  2.0604679393734779e-01  2.1488265717792265e-01  2.4040008140123745e-01  1.1468706491756026e-01  1.1001131761036415e-01  1.1135754170485969e-01  1.3630605826414049e-01  1.1765096262598652e-01  2.8179702493341972e-02  1.3869777690077076e-01  1.1906024348339593e-01  1.3628919376010734e-01  9.7574789186717137e-02  3.0132280765179861e-02  1.5527240873806513e-02  3.3547898359372816e-02  2.2436010358007026e-02  4.4063924071165592e-02  0.0000000000000000e+00  0.0000000000000000e+00  1.8451541069177891e-02  4.2812570624620454e-02  8.7850478562504886e-02  7.7097515723027768e-02  5.9100738927120616e-02  3.2302840256094603e-02  4.1976755042660172e-02  1.8934644246305966e-02  5.1153959365735066e-02  3.4111404258569449e-02  3.8677757898226126e-02  3.2273058876049913e-02  5.3773809032672301e-02  3.8032096677055226e-02  5.1283914574134545e-02  2.0202622750050823e-02  4.8391633878434120e-01  4.7943128917843331e-01  4.3180677809721746e-01  4.4610977717254247e-01  7.3161616330008519e-02  1.6209831845643208e-01  1.2320877509021960e-01  2.0965061859325312e-01  1.8219583742725326e-01  1.8177064881328769e-01  1.6141085192143861e-01  4.8898841774910029e-01  4.7139195533341161e-01  4.6993420896000787e-01  4.9254336070890131e-01  4.6253190235228797e-01  4.7750023587948659e-01  4.5843841842046834e-01  4.3937883372034575e-01  4.5659868276501064e-01  5.7177167609226820e-01  5.6111564625942167e-01  5.5452052082108483e-01  5.4180932642892421e-01  5.1546345032483110e-01  5.1198303507206744e-01  1.3533847462735901e-01  1.1461951734280745e-01  1.3498651996156921e-01  1.0277236092205966e-01  5.0831527764041873e-01  5.1069015880790192e-01  4.9326552091799925e-01  3.6905399422627122e-01  3.9640824871411118e-01  3.8505491580957046e-01  4.3767237726940483e-01  3.8664033563421757e-01  3.7969624529348223e-01  3.7916305399303252e-01  4.0296802234085360e-01  4.0183033585151889e-01  6.8518801324347706e-02  4.9706479518382772e-02  6.5524008005396331e-02  8.2701127988714374e-02  5.7255505852181789e-02  5.5916727597174787e-01  4.3320791682767207e-01  4.3241215519044612e-01  4.4718030430821742e-01  4.5632404850702418e-01  4.5224139267891489e-01  4.5593594883297855e-01  1.4930746156202740e-01  1.1848730014470349e-01  1.2458782338457534e-01  1.2857280266239102e-01  1.0150364690038544e-01  1.2356528531305086e-01  3.0693223559359833e-01  3.1788431675148576e-01  2.8444368471372988e-01  3.2456846635410308e-01  1.4863977694820457e-01  1.8234390857692676e-01  1.7325464830702994e-01  2.1891507442504862e-01  3.1086546059392972e-01  3.3069438450518496e-01  3.3187705166669018e-01  3.3406728876654179e-01  3.1339046767681894e-01  2.7339018032781309e-01  1.6551159769664806e-01  6.0169886875757972e-02  2.5893006264949992e-02  7.7112872768001578e-02  5.7444417775165339e-02  1.6421902910323485e-01  1.8243070685628326e-01  1.5549553723731740e-01  8.8840897530380117e-02  1.1497314248736641e-01  9.8352647232393078e-02  1.4418500995835809e-01  1.3005656967663645e-01  3.1029861252104829e-01  3.2079434417106156e-01  2.4467868452579447e-01  3.2733313726525187e-01  3.4481763278164057e-01  3.1841855963677118e-01  3.0950042947698431e-01  3.2620948480742218e-01  4.6009115625949039e-02  5.6271088046943495e-02  3.7597837796450130e-02  4.3005736064687411e-02  2.0606524945118339e-02  1.4283917316470912e-01  1.2081446207251723e-01  1.5075076741313997e-01  1.6902797615814966e-01  1.9209927406264757e-01  5.1477205189873776e-01  4.9873435131751309e-01  4.7688247225899977e-01  4.6308737096362723e-01  5.3536634940447581e-01  5.3490927290891510e-01  1.1757226314342452e-01  1.3794109243800540e-01  1.0097045443950035e-01  8.1153533807842057e-02  1.6215650846236890e-01  1.2917728981456819e-01  8.9900584264421046e-02  9.8555730551888460e-02  2.6605551464528387e-01  2.4307563007591831e-01  2.6058609035529556e-01  1.8909032668805734e-01  2.8116616870375732e-01  2.5799448415835602e-01  2.6272326696973636e-01  2.5183957535262941e-01  2.3274682733820035e-01  3.2783925228692179e-01  3.5230402243752168e-01  3.5161872056281018e-01  3.7063605873745931e-01  3.9943631405678487e-01  4.0721385267514515e-01  4.0573400106809709e-01  3.0943243966877410e-01  3.4315032980188914e-01  3.2542420290415558e-01  3.4155088473155498e-01  4.8468807986143481e-01  3.2691962850315576e-01  2.4243472409938047e-01  5.1072428346368248e-01  5.2423293774704305e-01  3.4340017814031905e-02  6.5275537133540507e-02  4.4895664285145348e-01  4.3033428807265933e-01  4.4374941499712495e-01  5.2368727885904409e-01  5.3823583695948940e-01  5.2469662886602519e-01  5.0948639729227263e-01  5.1733641107342909e-01  3.0992579712424868e-02  2.4098986111786871e-01  2.5803392970103550e-01  2.2198353060648843e-01  1.8900945987845560e-01  1.6330291220530954e-01  5.6870937460207227e-01  5.6490016048048286e-01  5.7489780539366730e-01  5.8111407091390377e-01  3.4816413384312496e-02  2.6311295365719606e-02  5.2305384748203301e-02  7.3078542558241019e-02  9.5559683712536814e-02  9.2434303507758636e-02  6.8001902506609896e-02  1.5623101994916214e-01  1.7115931847293897e-01  1.4635341104386354e-01  1.6775161275465669e-01  1.6665342027146421e-01  1.9690205392250593e-01  1.9886711121823941e-01  5.3947329151939905e-01  5.3644499710311400e-01  5.5022297717259505e-01  4.9977780224618035e-01  2.9588528914222789e-01  1.9030807092986746e-01  1.3764575493233486e-01  1.2326760983928887e-01  1.2558846507837379e-01  1.2861165315160517e-01  3.5850740891048377e-01  3.1978534006166487e-01  2.8199420942261910e-01  2.8883744523488480e-01  3.3296855003640780e-01  5.5497942466312133e-01  5.5977312151390879e-01  2.9294324019368989e-01  3.1106156883611430e-01  3.0629939287267977e-01  5.5025796671528804e-01  5.4460589223318934e-01  5.3791751305793445e-01  5.2881128166288571e-01  5.1249029031121929e-01  4.1800690349455917e-02  6.9196222588686671e-02  0.0000000000000000e+00  1.6601217869122949e-02  3.2408474514326363e-01  3.4682557015222382e-01  3.2860407374199613e-01  3.0560644461638092e-01  1.6401154943557310e-02  1.0049773250469461e-01  9.0074600170598998e-02  1.8239808082977935e-01  2.0880546263323893e-01  1.0422029571538208e-01  1.8566328938221519e-01  2.5576747018443791e-01  1.6323524958528005e-01  1.6505550850555784e-01  1.8933440509835561e-01  1.7783087153010979e-01  1.4491917994968967e-01  3.2721905929314304e-01  3.0540978131142732e-01  3.2193806106848061e-01  2.3518681379843566e-02  5.0278600923623473e-01  4.9677425220717897e-01  4.2772026196206908e-01  4.4789828284630495e-01  4.0899214038985943e-01  3.8947643999711934e-01  4.5333347893924192e-01  4.7139998364072039e-01  4.6658095918620068e-01  2.9258324475204228e-01  2.8847385802142039e-01  3.1191764802924410e-01  3.3265360026187740e-01  1.1902672694709787e-01  1.3744088216322928e-01  5.5164136034931366e-01  5.6062843481465463e-01  9.5151356185067495e-02  1.1669226314908999e-01  8.0668724945039821e-02  9.8357823278664769e-02  5.8207904131187427e-01  1.6330497704099250e-02  1.8553735618268289e-02  7.8635072940457351e-02  1.5134410953093199e-02  1.4399793684491510e-02  1.4866758461715618e-01  1.6461265369379693e-01  1.2016246016604244e-01  1.1792958253817801e-01  3.6796152146588551e-01  4.6372272601777276e-01  4.4222138223356094e-01  4.6284550621166182e-01  4.6452644241345631e-01  3.2839452483099613e-01  1.0301659570395530e-01  9.1083315590267916e-02  2.9675863502415977e-02  1.4020859998200479e-02  9.6892416855393126e-02  4.3586979344178399e-02  6.0176144991520637e-02  4.7020069278411694e-02  4.5436887543927926e-02  5.2286574857960666e-01  5.0804170149855543e-01  5.0969922851939498e-01  4.9315944987628585e-01  6.9068273942364436e-02  8.8827235984152556e-02  9.6591832208160575e-02  3.8496574069186090e-01  3.9463474551514938e-01  4.2568557572730237e-01  1.0001020630640629e-01  1.5411663953170585e-01  3.4287168540071250e-01  3.3364116858849052e-01  3.5535099682190863e-01  3.7537577897952901e-01  4.0925118266625066e-01  3.9033608955348842e-01  1.8670985983650118e-01  2.2874283747403532e-01  4.3892572290538001e-01  4.5109345613219504e-01  4.6090043070662723e-01  2.8499826341309670e-01  2.4089777908682045e-01  1.7479463330017253e-01  1.4587816068159878e-01  3.0371936208832478e-01  3.2770098763798317e-01  3.0048887055151191e-01  2.1411444401264257e-01  1.9136723562209099e-01  2.4174787572780657e-01  4.9192582012229862e-02  6.2551506072928614e-02  4.7003824177110454e-01  4.9349173650587680e-01  1.2860670536792540e-01  1.0212043733900480e-01  8.6278934098411739e-02  2.0783067061153931e-02  1.9435105363792525e-02  5.2209555037937605e-01  5.2832239230570510e-01  4.9082273875492438e-01  2.5297791169081468e-01  3.3226145442826771e-01  2.9018348176492176e-01  2.9000401783061802e-01  3.7837232021182504e-01  4.0552875465537352e-01  4.7196293888111213e-01  4.8767712389196005e-01  3.5337677395560030e-01  3.8013169865008650e-01  3.6277201604450343e-01  3.7166089209589764e-01  3.5145904357546026e-01  2.3777472792140106e-01  2.1564138545222877e-01  1.9265462477548675e-01  2.1438801905654750e-01  2.5023423039299142e-01  3.5018202804533710e-01  3.3056536051423385e-01  0.0000000000000000e+00  2.1424995519898321e-02  2.0580424071528550e-02  0.0000000000000000e+00  1.9022274394327566e-02  8.2176375399150847e-02  5.7190774256851859e-02  4.2794089145162230e-02  1.6207228811057955e-01  1.5562164787183280e-01  1.8666024463284209e-01  2.0306555614918040e-01  5.1128606705783869e-02  5.9969324521166663e-02  2.2254132348677844e-01  2.427647604