<?xml version="1.0"?>
<VTKFile type="UnstructuredGrid"  version="0.1"  >
<UnstructuredGrid>
<Piece  NumberOfPoints="785" NumberOfCells="1485">
<Points>
<DataArray  type="Float64"  NumberOfComponents="3"  format="ascii">1 0 0  0.9510565162951535 0.3090169943749474 0  0.8090169943749475 0.5877852522924731 0  0.5877852522924731 0.8090169943749475 0  0.3090169943749475 0.9510565162951535 0  6.123233995736766e-17 1 0  -0.3090169943749473 0.9510565162951536 0  -0.587785252292473 0.8090169943749475 0  -0.8090169943749473 0.5877852522924732 0  -0.9510565162951535 0.3090169943749475 0  -1 1.224646799147353e-16 0  -0.9510565162951538 -0.3090169943749469 0  -0.8090169943749476 -0.587785252292473 0  -0.5877852522924732 -0.8090169943749473 0  -0.3090169943749476 -0.9510565162951535 0  -1.83697019872103e-16 -1 0  0.3090169943749472 -0.9510565162951536 0  0.5877852522924729 -0.8090169943749476 0  0.8090169943749473 -0.5877852522924734 0  0.9510565162951535 -0.3090169943749476 0  0 -1.110223024625157e-16 0  0.4510565162951535 0.2298247742126793 0  -0.07919222016226819 0.5 0  0.4217401972019558 -0.2701752257873207 0  -0.4664690173352599 0.1823899734948475 0  -0.3579604780797941 -0.3579604780797938 0  0.08947756573959761 -0.564939116217821 0  0.2920115546147195 0.5731049448157398 0  -0.6379736825905938 -0.1331202236553083 0  -0.5008003933374412 0.5008003933374412 0  0.6995191145456661 -0.1107929434536306 0  0.142039521920206 0.2787682579175257 0  -0.3334887362273707 -0.6545084971874736 0  0.1245525093718384 -0.2698283057066694 0  0.394121195831843 -0.5736904951771631 0  -0.3634291792402099 -0.07798855321373677 0  -0.7398752304198022 0.1266395525571908 0  0.5513406906673669 0.5513406906673668 0  0.06772072383772594 0.7330026833223602 0  -0.1798257626464556 0.2277898049615374 0  -0.1329363554971779 -0.2250241225826161 0  0.2899847546250717 -0.01159061002844763 0  0.7178334616361693 0.1634954202353548 0  -0.185558029016192 0.7298829572732783 0  -0.5575821515891235 -0.5237174003589158 0  0.6636796672438613 -0.3700844779107332 0  -0.1473869834727682 -0.4898672660924318 0  -0.1245776731282009 -0.7865524724078699 0  -0.7047576755565585 0.3676611205918164 0  -0.7200632558821398 -0.3535872110403818 0  0.1059826075223748 -0.795065377569524 0  0.8800367553350505 0.4484011233337103 0  0.623199147317663 0.3525294878401746 0  0.5129820594521588 0.01406716385861899 0  -0.2901427146123197 0.4232796753639339 0  0.6984011233337102 -0.6984011233337104 0  -0.4012649964410931 0.6952739930058706 0  0.2729833322899929 -0.4096530452196732 0  0.3012581447838918 -0.7510272980442365 0  -0.8137027520495476 -0.05218979815199046 0  0.4331943037813432 0.6994662051624437 0  0.4096672220709169 0.4191323268585566 0  0.1043321860738427 0.5471012642541169 0  -0.1964715282981352 0.02977353470457396 0  0.2552131475805349 0.7680603542530016 0  -0.5388598112947428 -0.3431837635368604 0  -0.5797382542202413 0.03959248166636803 0  0.009584998068538048 -0.4058038127633932 0  0.1545084971874738 0.9755282581475768 0  0.4973115362790197 -0.4300662553549759 0  0.5658689724588636 -0.5882049478260758 0  0.2422046756816651 0.4131071900577793 0  0.7836508779194769 0.3146499317110243 0  -0.1545084971874736 0.9755282581475768 0  -0.06024135378981482 0.8388279256599832 0  0.8224179041086225 0.01875666381115074 0  0.9755282581475768 -0.1545084971874738 0  0.1492029128681321 0.09954782333993309 0  -0.007766320725004716 0.1830271833708655 0  0.3053451802085407 0.1526019885243211 0  -0.008583573074307321 0.3493769050054867 0  -0.2248586819964352 0.5721497532038938 0  -0.6984011233337102 0.6984011233337104 0  -0.6608599644184795 0.5232054702963955 0  -0.4379831721234783 0.3465173839916844 0  0.78947533516742 -0.2553493950128032 0  0.5377785018220788 -0.1506580215248616 0  -0.4377018126721021 -0.2194786956927773 0  0.9755282581475768 0.1545084971874737 0  -0.8135818870758709 -0.2173971224509217 0  -0.8800367553350507 -0.44840112333371 0  -0.8800367553350504 0.4484011233337104 0  0.8800367553350504 -0.4484011233337105 0  -0.6984011233337104 -0.6984011233337102 0  0.6984011233337103 0.6984011233337103 0  -0.4484011233337102 0.8800367553350505 0  -0.4484011233337104 -0.8800367553350504 0  0.1545084971874735 -0.9755282581475768 0  -0.1545084971874739 -0.9755282581475768 0  -0.9755282581475768 0.1545084971874738 0  0.4484011233337103 0.8800367553350505 0  0.4484011233337101 -0.8800367553350505 0  -0.9755282581475768 -0.1545084971874734 0  -0.3127199235709721 0.1392534573254163 0  -0.005479567850930206 -0.6874046165737091 0  0.2732479409242113 -0.1829771259830817 0  0.1418810278893715 -0.0836379635813527 0  0.004538992852202391 -0.15446060603175 0  -0.2853499925602263 -0.2239500765044786 0  0.4567744071463516 -0.7194815091863737 0  0.2407354298475123 -0.6063519260829316 0  -0.6189916801537911 0.2320956117698647 0  0.6914879155064673 0.4896037129438954 0  -0.1790968367221579 -0.6415245347002975 0  -0.3212528653011592 -0.8027825067413136 0  -0.4953997049317194 -0.6745488295647377 0  -0.3019794247314472 -0.5026245467723092 0  -0.5503379494258648 0.6488635672452867 0  -0.1526806950398258 0.3736888875971234 0  -0.3677221816356187 0.5553972409288912 0  0.4114570176646632 -0.08544454673099088 0  -0.3115221870742588 0.2814617094129646 0  -0.5055096840583726 -0.08161026592659262 0  -0.4207091841266609 0.04992126597993612 0  0.8394524656852788 -0.1204728868496304 0  -0.8092094227335564 0.2598108991006964 0  0.323275210824397 0.2948523260610789 0  -0.01235717006850368 0.6206762832191056 0  0.5723120307309651 0.1478612873198991 0  0.6584453108854001 0.0296143784812711 0  -0.1127073123157568 -0.08060902155425154 0  -0.3263472417314189 0.8127807834423398 0  -0.5693189598496932 0.3829729594944991 0  0.1787115426866188 0.6583053932958268 0  -0.2086945469431951 -0.3537063371349133 0  0.1413875674469653 -0.4006527365317505 0  -0.8825665179032465 0.06059258382501253 0  0.644423923763579 -0.2353002930398254 0  0.6873112429813564 -0.5116720902927442 0  0.5622403797493952 0.6812145165111156 0  0.4206022107082307 0.5494267599564201 0  -0.6985923484076459 -0.4957346960056245 0  -0.4275853811955493 -0.5583578671446736 0  0.1085975446525227 0.4135614629143593 0  0.8462315462026486 0.146118149748369 0  0.0718775524803872 0.8683064513691334 0  0.2157671749860278 -0.8623003278851888 0  -0.0009650574677971344 -0.2802933617576216 0  -0.6918203030037906 -0.01878988057032068 0  -0.2381679848617855 -0.08884164997446616 0  0.423770719651625 0.1052277906161352 0  -0.04008614995957274 -0.5625247949542947 0  -0.1838372862262216 0.8544504343113826 0  -0.06228883656410056 -0.8932762362039349 0  -0.2167973337515742 -0.8688044943515117 0  0.5422127886147651 -0.3110393647923049 0  -0.08715913041914175 0.08797997509234301 0  -0.4554204244795622 -0.4363932914340152 0  -0.8358691411028879 -0.3329048731086893 0  -0.696161304464804 -0.2369706844702208 0  -0.5584023614893824 -0.2239903645074836 0  0.1899841503682763 -0.7125800017390629 0  -0.7645428941125212 0.4685002778378229 0  0.06385263338978434 -0.9031496607807421 0  0.1885230304214117 0.8638639632561416 0  0.7840064636769384 -0.375682112498297 0  0.20078000365488 -0.4988085223509479 0  0.3065188648271355 -0.2963540786387833 0  0.3818589112326135 -0.4559984283196847 0  -0.3101348374984462 0.02265782905399914 0  -0.09274097508423339 -0.3512064167914866 0  -0.6034356931010622 -0.6308547114517774 0  0.5306709666442585 0.4314779253418129 0  -0.04412882481905579 0.7280335190386622 0  0.368139879099501 0.7958703882135997 0  0.5664333444162233 -0.6996425847768714 0  -0.6116455351171063 -0.4268731036572567 0  -0.4025747561849136 0.4508638281790917 0  -0.2867957698889448 0.6713445967088895 0  -0.4986338823410387 0.7454077904527141 0  -0.1197223386227034 0.6012931190607056 0  0.6019841841703942 -0.0631137624285925 0  0.4793630357317586 0.335191930278104 0  -0.4057080951926841 -0.7351100538182147 0  -0.2500487025609878 -0.7222647261547557 0  -0.5202389861383073 0.2762579513581566 0  -0.004903510438664035 -0.7983375068467664 0  -0.8677303216271283 0.1682446337113246 0  0.9632923872213652 -0.2317627457812107 0  0.6359382133354268 0.2407019555277372 0  -0.1954327480994572 0.4704960404955171 0  -0.09318292723014725 0.2871443445734201 0  0.6543968779059033 0.5953449360951739 0  0.5860085732792212 -0.4855437761655895 0  0.02433540313127336 0.477708088704549 0  0.2050327353918737 0.1915327024870737 0  0.3019600516521567 -0.5224112525625693 0  -0.4559197183044352 0.6082074424089278 0  0.9877641290737884 0.07725424859373685 0  0.8445268748549989 -0.5180931878130919 0  -0.7537090588543289 -0.6430931878130917 0  -0.8115083307004233 0.366542657984397 0  0.9877641290737884 -0.0772542485937369 0  0.3157389177020913 -0.8506306959163319 0  0.3661954416712823 -0.6720495099691162 0  -0.2110888953948772 0.1307100872489919 0  0.2771278415803478 0.671246208704549 0  0.7755166821205643 0.4221168689217691 0  0.09258535306910454 -0.6974063904331503 0  -0.5180931878130919 -0.8445268748549989 0  -0.5636233828952756 0.1431321340909777 0  0.2093668298544761 -0.3254094489515746 0  -0.7452216441755674 -0.1347434040272279 0  0.3432419291961207 0.4903131612096761 0  0.9632923872213652 0.2317627457812105 0  0.8654704589902047 0.2558653845079852 0  -0.7721646645307192 0.03531578018689553 0  -0.9877641290737884 -0.07725424859373664 0  0.3972451269157145 -0.7968729007064921 0  0.2047656419391337 0.5125131148681941 0  -0.7107486842465451 0.2689580543411794 0  -0.8747057134039039 -0.1348381340198916 0  0.9075822029513861 -0.02495856901956285 0  0.4175383422250996 0.009896499472273557 0  0.1611803648706316 0.7520641323258265 0  0.293383900196892 0.8562452162748729 0  -0.9632923872213652 -0.2317627457812101 0  0.4226327034146973 -0.3675580274712185 0  -0.6211574309532173 -0.2954782403839667 0  0.5073765864410278 0.7586347332656206 0  0.3688379632316558 0.6293192053628369 0  0.484958551257918 0.6195737597560269 0  0.08576045253602423 0.639999587219085 0  -0.8445268748549991 -0.5180931878130914 0  -0.7797212151374868 -0.4352936457408597
[...]
<PointData  Scalars="f_1261-2"> 
<DataArray  type="Float64"  Name="f_1261-2"  format="ascii">0.0000000000000000e+00  0.0000000000000000e+00  0.0000000000000000e+00  0.0000000000000000e+00  0.0000000000000000e+00  0.0000000000000000e+00  0.0000000000000000e+00  0.0000000000000000e+00  0.0000000000000000e+00  0.0000000000000000e+00  0.0000000000000000e+00  0.0000000000000000e+00  0.0000000000000000e+00  0.0000000000000000e+00  0.0000000000000000e+00  0.0000000000000000e+00  0.0000000000000000e+00  0.0000000000000000e+00  0.0000000000000000e+00  0.0000000000000000e+00  1.7232637357381049e+00  1.1089379428225898e+00  1.1032165813669306e+00  1.1123848557302165e+00  1.1140881492283747e+00  1.1026368206333585e+00  9.5366537498935899e-01  7.9775797802225223e-01  7.6952697126942238e-01  6.3962747525358210e-01  6.3994821673585289e-01  1.4710981409976005e+00  5.7891868350025766e-01  1.4887501520747353e+00  6.7388871720943433e-01  1.3717468256538652e+00  5.4061389519178438e-01  4.6217894694931433e-01  5.7768734961057477e-01  1.5010116274354379e+00  1.5410665803370536e+00  1.5020180447393223e+00  5.7558822902914308e-01  5.3760165951917993e-01  5.0044337589976740e-01  5.1600551458034660e-01  1.0903250781949168e+00  4.4515736632712843e-01  4.2814081134996335e-01  4.2964458217111490e-01  4.1360342651814574e-01  0.0000000000000000e+00  6.2628809835441823e-01  1.0949287463183830e+00  1.0947419222123520e+00  0.0000000000000000e+00  4.2937046728556649e-01  1.1350183168387795e+00  4.1558075684762524e-01  4.0235292140179890e-01  3.7766136077053558e-01  9.2731154130804949e-01  1.0001626532251604e+00  1.6158087364711835e+00  4.0723757402231436e-01  8.0794969532745320e-01  9.4268129322278160e-01  1.3075157167974369e+00  0.0000000000000000e+00  7.6671495104153897e-01  4.0930206031946564e-01  1.1594795502954236e+00  3.2585676250568946e-01  0.0000000000000000e+00  3.2995218220594424e-01  3.7115147452100317e-01  0.0000000000000000e+00  1.6352426631178150e+00  1.6340545977728227e+00  1.4224172066498073e+00  1.4068805022903039e+00  8.6349175821537560e-01  0.0000000000000000e+00  3.3373321324916422e-01  9.9499831069342504e-01  3.5984836683890503e-01  9.8915900241861343e-01  1.1408201258388964e+00  0.0000000000000000e+00  3.2760533905112538e-01  0.0000000000000000e+00  0.0000000000000000e+00  0.0000000000000000e+00  0.0000000000000000e+00  0.0000000000000000e+00  0.0000000000000000e+00  0.0000000000000000e+00  0.0000000000000000e+00  0.0000000000000000e+00  0.0000000000000000e+00  0.0000000000000000e+00  0.0000000000000000e+00  0.0000000000000000e+00  1.4211263158852623e+00  6.9705730686470468e-01  1.4404597565952821e+00  1.6515079955814451e+00  1.6585314955052299e+00  1.3858206784392395e+00  3.0321991057478609e-01  7.7094228193629333e-01  7.5910747170466397e-01  3.2445867778098536e-01  7.3928437931731805e-01  2.7824027102055787e-01  3.5093288585554278e-01  9.2547830520647134e-01  3.0818504995966978e-01  1.3120712468932958e+00  7.3496523721535545e-01  1.2842962344686781e+00  1.2844287864410593e+00  1.0952785649986374e+00  1.2747039445283153e+00  2.9628491136330537e-01  2.9824472111566963e-01  1.2453131905405042e+00  8.4610202943281798e-01  9.2164212374048482e-01  7.6642785265780822e-01  1.6729284182402548e+00  2.3606723691964981e-01  6.9623874930885976e-01  6.9718573354730029e-01  1.2965700287148769e+00  1.2668406450198866e+00  2.1502785727682514e-01  7.0347678726534935e-01  2.9997134272514159e-01  2.3012570932328411e-01  6.8843377839276576e-01  2.9170961982192656e-01  6.6298786356549089e-01  1.2620722163847118e+00  2.7453092996242556e-01  2.5961680681996463e-01  2.0644105664226964e-01  1.5143686389511046e+00  6.9178418365820649e-01  1.5543367780784294e+00  1.2488838368364759e+00  9.7604373989355941e-01  2.4762519576977607e-01  2.2385978595127118e-01  2.1039265475200256e-01  8.3717297050934403e-01  1.6814793293482762e+00  8.2278821326598772e-01  1.9809191168093593e-01  5.7926920238251223e-01  8.9070563547649673e-01  5.7524038355829965e-01  2.0079322031679189e-01  1.7478815939642514e-01  2.2462020978799263e-01  2.4732833734971707e-01  1.0303872362756445e+00  1.2653020452263914e+00  9.1493783901569348e-01  1.4696487223523851e+00  1.3825757527753753e+00  2.4722903247131342e-01  6.9979895561221650e-01  5.9479547004751787e-01  2.4893951404452072e-01  1.9155574695874319e-01  5.5469970576948258e-01  8.8861497223660013e-01  5.9323020447568975e-01  1.9601694933508179e-01  8.6422825470716391e-01  8.8237751539544906e-01  9.3922364285770721e-01  3.4244760204627184e-01  5.1990358130864900e-01  9.2577128937667197e-01  4.2948720481546820e-01  2.1181168360650987e-01  0.0000000000000000e+00  7.1130791081632105e-01  1.1010875090413530e+00  1.4829123076311246e+00  2.2899171670796603e-01  5.2035234990390566e-01  1.1682601577774239e+00  1.5173518245547082e+00  8.8600290588004638e-01  5.2409608112057782e-01  0.0000000000000000e+00  0.0000000000000000e+00  0.0000000000000000e+00  1.9692787412980650e-01  0.0000000000000000e+00  1.9766958620121819e-01  5.0462307997027667e-01  1.5588011893296319e+00  6.1532368720302089e-01  2.2184650389780411e-01  6.5307578246413589e-01  0.0000000000000000e+00  9.4155892378729233e-01  1.3412813953809333e+00  5.2212016204372824e-01  9.0045860734054550e-01  0.0000000000000000e+00  1.7801922589339014e-01  4.8353908064639151e-01  0.0000000000000000e+00  2.3091999195867635e-01  1.0010529991311601e+00  5.1782101110193091e-01  2.0626497645901817e-01  1.9373952566722025e-01  1.2860109559492980e+00  4.9419896654719991e-01  2.0060778835983079e-01  0.0000000000000000e+00  9.8991966617201355e-01  7.0046918777431288e-01  1.9317325382690306e-01  6.1237023629384535e-01  4.7406952328368385e-01  7.8791267611684490e-01  0.0000000000000000e+00  1.9689668184308567e-01  0.0000000000000000e+00  2.3233727192570625e-01  1.6147878895148322e+00  9.0844471278555838e-01  8.8792301313034394e-01  1.1657236319042799e+00  2.2916939676501130e-01  1.2632873509640086e+00  1.2808167776219823e+00  1.6260012763624976e+00  1.6976669055657365e+00  1.6871528557770989e+00  1.5973751209587137e+00  1.5421993921207944e+00  7.6587399563706604e-01  8.9374980060088471e-01  1.3358850988027877e+00  1.0160230096603793e+00  1.8901547981663319e-01  7.8448933260283171e-01  1.9957208338181540e-01  4.6150901495267899e-01  0.0000000000000000e+00  7.8283771271810443e-01  4.8760378702485008e-01  5.1278117804622381e-01  1.1246921225861704e+00  1.2310105738226962e+00  1.4210729365050196e+00  1.6079260967231137e+00  1.5329694741641151e+00  6.2931370288254607e-01  4.6489958703594125e-01  6.7542802352639042e-01  1.4070360332473131e+00  1.7406410491282326e-01  1.1225971434062647e+00  2.2797926838526791e-01  2.1389624131935378e-01  3.9296013753815584e-01  5.2677533388154618e-01  1.1293100809283938e+00  1.2940541303387174e+00  1.5225259624059382e+00  1.4342804090486017e+00  1.5623672639132991e+00  1.5295602480973058e+00  0.0000000000000000e+00  1.8161555367891530e-01  2.0163677340041999e-01  4.9607916002682223e-01  1.0950066710963249e+00  1.6995735427358831e+00  4.9613167434637678e-01  5.5107789160351861e-01  0.0000000000000000e+00  0.0000000000000000e+00  1.0710811299541074e+00  1.7030014459488665e-01  0.0000000000000000e+00  4.4497771823579479e-01  1.2854254952000648e+00  9.5079204234267944e-01  2.2151504807184466e-01  7.9288608864672072e-01  1.1107095944820047e+00  1.1047409685231184e+00  7.9576079752771789e-01  1.0057694447200618e+00  1.2866102604397480e+00  4.3749222150628375e-01  2.0220289446859271e-01  4.5487719936668758e-01  1.4295963215558880e+00  2.2040950899322401e-01  1.6626372356927308e-01  3.9895986455215154e-01  5.1034479046204961e-01  1.2679949865585822e+00  1.7008516244563339e+00  0.0000000000000000e+00  9.3014914626163192e-01  5.6571709370555334e-01  0.0000000000000000e+00  4.3520430416907141e-01  5.1263753081102381e-01  4.4691631409193228e-01  9.3063883224832744e-01  7.2458604881812394e-01  6.8889710504102597e-01  1.1038167231869784e+00  1.2434619437240146e+00  1.7381797485889611e-01  4.0286028880990443e-01  7.2843403323741329e-01  1.1093737428038635e+00  0.0000000000000000e+00  1.4131498983164601e+00  6.3440803533595458e-01  6.4746910693069171e-01  1.1998628542784728e+00  1.2169380181480005e+00  1.4513021305298064e+00  1.0942182415054695e+00  1.6033678068923690e-01  4.2941010860190687e-01  1.9894680232938869e-01  1.9635624602462062e-01  3.9156479359772423e-01  1.3915542300388337e+00  0.0000000000000000e+00  5.9856720096129534e-01  7.1746711682253117e-01  1.7937676344917047e-01  7.0704592016262358e-01  0.0000000000000000e+00  0.0000000000000000e+00  0.0000000000000000e+00  0.0000000000000000e+00  0.0000000000000000e+00  0.0000000000000000e+00  0.0000000000000000e+00  0.0000000000000000e+00  0.0000000000000000e+00  0.0000000000000000e+00  0.0000000000000000e+00  0.0000000000000000e+00  0.0000000000000000e+00  0.0000000000000000e+00  0.0000000000000000e+00  0.0000000000000000e+00  0.0000000000000000e+00  0.0000000000000000e+00  0.0000000000000000e+00  0.0000000000000000e+00  2.3717176661271591e-01  1.6339381556151478e-01  1.0464089325880921e+00  1.1584175575780096e+00  1.0746501373046762e+00  7.7750467322326111e-01  8.2043575536016145e-01  5.5783174438974359e-01  6.2357366661192737e-01  1.2967520970471131e+00  1.0846579253798787e+00  9.2802721964305135e-01  1.6350968503292909e+00  1.7028672264979492e+00  1.9390136287204218e-01  1.2950925990522757e+00  1.2772095253474982e+00  1.4253935870947678e+00  4.0727708647773603e-01  1.4019376582243366e+00  1.0055107954587503e+00  2.0071002199028232e-01  3.5571414017505582e-01  4.1647514159049120e-01  1.4848656142071912e-01  4.5442616076267561e-01  1.4065575414067262e+00  8.4524869072983388e-01  1.5665563411541406e+00  1.6137920024292404e-01  9.9560964237656691e-01  1.5881932885243263e-01  1.7545375668717228e-01  4.2176908996700080e-01  4.2901102764316390e-01  1.5356841369299414e+00  1.3063615861864029e+00  6.5597945895239851e-01  1.0082653678497508e+00  7.4502254414649360e-01  7.3172319327783730e-01  6.7325634914526677e-01  9.4428524071050457e-01  8.3855125893388072e-01  1.8426132405339554e-01  1.5716510822753460e+00  7.8607067368078742e-01  1.7466139971163752e-01  2.0782916890195588e-01  1.4163681745274697e+00  7.6094684838560456e-01  6.1035708755478435e-01  6.9395810617108666e-01  3.9774572426325960e-01  4.1542193314153059e-01  3.7710854076759176e-01  3.8125080703692871e-01  4.5825975936364338e-01  3.5971827457324856e-01  1.8557691765778772e-01  5.7463379239419710e-01  1.1620558027087664e+00  1.3895288973292619e+00  9.3795341493561157e-01  3.6949865712069890e-01  5.7517630766581085e-01  1.7034274569318963e+00  4.7168627630687027e-01  6.5461858908741621e-01  5.3457390518811021e-01  3.9856007574946284e-01  1.0099518962025840e+00  9.1874377504362981e-01  1.3300986750222812e+00  9.1355288809842705e-01  1.3694569762673787e+00  1.5484835849133840e+00  1.2641684050257569e+00  1.6310514536592047e+00  7.3800134750830726e-01  3.3048031350688195e-01  9.7181006035553696e-01  7.0005327694474617e-01  8.1650227372969209e-01  1.6989392194959280e-01  3.3393260322992668e-01  1.3934378718799232e+00  1.2028769342757668e+00  5.5360124366274988e-01  8.6709394915008009e-01  1.1385631377179548e+00  6.9338001877562450e-01  1.6068891268784041e-01  1.3778594198833440e+00  1.1869007807449499e+00  1.0782818327546202e+00  1.6462606862107229e-01  6.7453768270545644e-01  1.6088495466734491e+00  5.8656710658935884e-01  8.4988570689512499e-01  6.6361438643872661e-01  5.6185818283850342e-01  1.8300084624771709e-01  1.1315750883666478e+00  1.3310543094520080e+00  1.8958564668494277e-01  1.7977685663383741e-01  1.9544514491159759e-01  1.5532787434495776e+00  1.5394206729682787e+00  9.6873605065010149e-01  1.5463576685615266e-01  1.6090258505672442e-01  3.6974263857219852e-01  7.8495000871390253e-01  1.3849680843112391e+00  1.2314952385347577e+00  1.2541567764440684e+00  1.2106803015110703e+00  1.6842254478689669e-01  1.6592556179183260e-01  1.6224836277039671e+00  7.3103313408891157e-01  5.8687393779620445e-01  3.9749428210180343e-01  1.2836159128583075e-01  3.3516530824409302e-01  7.7580859627287468e-01  1.7788136800240367e-01  1.1270668548942200e+00  8.3706316505220124e-01  9.8443353116632193e-01  1.0899145590312844e+00  4.4307602020593301e-01  4.5249093174991184e-01  5.3437748457763834e-01  4.0368987716485033e-01  4.7050998500072250e-01  1.6611733619425931e-01  3.3677641220058518e-01  1.4164186895086339e-01  3.9254335013011593e-01  4.1503076109372089e-01  1.2255263676971273e-01  9.4710157487604796e-01  1.4641787048010213e+00  5.4801647252720198e-01  1.2577661233284951e-01  1.1656907205270142e+00  8.0568127658744138e-01  6.9118471647797586e-01  1.5572344761191978e-01  6.7569772414312523e-01  1.5593914310041965e+00  2.8077650068221260e-01  1.4990835981171244e-01  1.2707202233971887e-01  7.7518886245543761e-01  3.5479038346618391e-01  1.3998660735802666e+00  1.4147980666840512e+00  8.8864345361653474e-01  3.6654133540589701e-01  4.0374956312350080e-01  1.4837349870116234e+00  7.5170482851692300e-01  7.6033671045074869e-01  8.6401963639679591e-01  9.7211018986341358e-01  4.5372585498831036e-01  7.6645187422071681e-01  1.3840046441854520e-01  1.8577542884362247e-01  1.1857149640222404e+00  1.3511834382758385e+00  1.4477682040826090e+00  1.6588795273803685e+00  1.6657527725607018e+00  1.3925427331727755e-01  1.7426307901973700e-01  3.5541409088795101e-01  1.2690672567911088e-01  3.7190218570262173e-01  1.4528164626535564e-01  1.5408220719955526e-01  8.2665917079904105e-01  1.6643167281487381e+00  1.7891533343275037e-01  1.8083683361258518e-01  8.4517812309474183e-01  6.2898755828338115e-01  8.3765590393276645e-01  1.2129834974281288e+00  1.0420599470407756e+00  8.7246382387231280e-01  2.2550387978109415e-01  1.7061175509225943e+00  7.3336091339887288e-01  3.7198751429785110e-01  1.7806632318696961e-01  1.7251106842297972e-01  1.0730760332907763e+00  1.5974269258475144e+00  1.3600978474877812e+00  3.3203557835364117e-01  1.2963129888682428e+00  5.1144220644459337e-01  4.6653350347365757e-01  6.8337537747615029e-01  4.7741898119228432e-01  4.6166338287467279e-01  7.7194303330707614e-01  9.9203581001255192e-01  1.0463634273384672e+00  1.0302056263687299e-01  1.7041665488378471e-01  1.1972025084812448e+00  8.6792926455926234e-01  1.4410954134279663e+00  1.0139082873623022e+00  3.6554256025923143e-01  6.6818605021033683e-01  4.9668556897296962e-01  2.9605796454009214e-01  1.1664614964348860e-01  3.1516165798349877e-01  1.2042873087777706e+00  4.4995294383885842e-01  1.7503561459245551e-01  1.3195290846209542e+00  1.7331601212866654e-01  4.4972416185023700e-01  3.0208059844121266e-01  1.3997380008469051e-01  6.0355490224406561e-01  7.2533457204930973e-01  1.1175396049552562e+00  2.9685439098541688e-01  2.7609711937046760e-01  1.6960514180248823e-01  3.1588329736703946e-01  4.0973585978598454e-01  2.7638862770638783e-01  5.5753515148989885e-01  1.5879309001010542e+00  3.7327803200871873e-01  1.6200872344972547e-01  1.3536843005283683e+00  1.7409224972011683e-01  1.5994511678872412e+00  1.1619593795617738e+00  1.2189070947595990e+00  1.5045771777149147e-01  8.2306503669291187e-01  3.9096920350094849e-01  1.0172069674448647e+00  9.9237924935892341e-01  1.6073442466242413e-01  1.1575875623608123e+00  9.0835330080947796e-01  1.9181573344474695e-01  6.8031680390830052e-01  1.6803892005090861e+00  1.3589285121115979e+00  1.5473064920453256e-01  1.5263178512916782e+00  1.4190591554295928e-01  6.8700300451262286e-01  1.1921032875317075e+00  1.6902548696952722e+00  2.7274021850044328e-01  6.2104299407648444e-01  1.4954069457172553e-01  4.7650366351259438e-01  4.4734769184469364e-01  2.6875020654999754e-01  1.0925210451045464e-01  3.0700129688512484e-01  3.1092229216295714e-01  1.1798146893725059e+00  1.4572854659885879e+00  4.4475068694053183e-01  5.7896926289157891e-01  6.9272184410436188e-01  1.0597052542457477e+00  6.3066849634702637e-01  5.2589788630284773e-01  2.8456803988800528e-01  1.6290348893748283e-01  1.6182315047671856e+00  2.1369521812001693e-01  1.4848732258154400e+00  9.5349397206766762e-01  1.6742660259441207e+00  9.9108945198789322e-01  7.7388855175858284e-01  8.2549093066920010e-01  5.7218020510345435e-01  1.7487173314436694e-01  1.2067554341407088e-01  2.9233053352079902e-01  1.3187205806420899e-01  6.7355352811316160e-01  8.9449006699970368e-01  1.0307127358907264e+00  9.4061747819463393e-01  8.0231766019474260e-01  8.8638851411511310e-01  0.0000000000000000e+00  2.4788543317453646e-01  2.6085874691502375e-01  3.1117138300915737e-01  7.7433544212348149e-01  1.5975860149856644e-01  1.0201546783565596e+00  2.9806264451698966e-01  3.1606991369001214e-01  4.7631014814851463e-01  1.0117997509343999e+00  4.6617937062192877e-01  5.4638213929325774e-01  9.7030870137514913e-01  1.0679697656491316e+00  2.6448518134915278e-01  2.4230807617366817e-01  1.5583944728473351e+00  1.5877696590415957e+00  1.4863366509262168e+00  1.5689068409050817e+00  1.0003281399109285e+00  1.0487367588683998e-01  1.6049325853862624e+00  1.6592311653643999e+00  1.6738244065546397e+00  1.6438284308300135e+00  4.2693827614602836e-01  1.0060907088215736e+00  1.4602291275797297e-01  6.0437724057950848e-01  1.3954906413044124e+00  2.6208397495067914e-01  2.6505130470397092e-01  8.2231374666411527e-01  8.7478328389322402e-01  8.9289556557332073e-01  3.1621212104363211e-01  6.4360521612475230e-01  1.0714904909034879e+00  1.2309115466217304e+00  1.0454594953900669e+00  9.7574948014069351e-01  5.7196606359520463e-01  1.1193577307390076e-01  7.9564643775721955e-01  4.1131046916778580e-01  2.3811079422373313e-01  3.9114055420219662e-01  1.5609860708805026e-01  1.3972854595550483e+00  1.5135278928887921e+00  0.0000000000000000e+00  1.3559338895516529e-01  1.2375471030742475e+00  9.7813176624703391e-01  4.2609503766018264e-01  1.5714289308416067e+00  6.6289137824623401e-01  1.4710245841109528e+00  5.8930246530289887e-01  4.8059534548571892e-01  4.9092496828862803e-01  1.5205517280295959e+00  8.4283620737069787e-01  1.4904745157315245e+00  8.7700927581838417e-01  5.3569917532979494e-01  5.1869984263477265e-01  4.6192684340820650e-01  1.5005347665205953e+00  3.1535412841443783e-01  7.8350619754557294e-01  5.7577889593228904e-01  1.6661701364324728e+00  5.9504054131755446e-01  1.7111618731463494e+00  1.4282054909855442e+00  7.2830646488697093e-01  6.7987689937579288e-01  1.4967221995500535e+00  1.0838448730032765e-01  7.9215620953387766e-01  1.5709518074863393e+00  1.6423569055137353e+00  4.6920290275986126e-01  1.6307604028971995e-01  1.2045316937140162e+00  2.8054906974391386e-01  1.2969658008707798e+00  2.7333263335748281e-01  6.7743222098532496e-01  7.5390148244228372e-01  3.2066958033063170e-01  3.2270294067642497e-01  1.5449575181916047e+00  2.9911025934760527e-01  2.6617717511454547e-01  1.2190075458885891e-01  1.2335259782112998e-01  1.5662409392934320e+00  0.0000000000000000e+00  1.2318645625669342e+00  6.7339389184714871e-01  1.6275268205392279e-01  1.3769588154309762e+00  </DataArray> 
</PointData> 
</Piece>
</UnstructuredGrid>
</VTKFile>