<?xml version="1.0"?>
<VTKFile type="UnstructuredGrid"  version="0.1"  >
<UnstructuredGrid>
<Piece  NumberOfPoints="4265" NumberOfCells="8271">
<Points>
<DataArray  type="Float64"  NumberOfComponents="3"  format="ascii">-0.7792525913773286 0.3345046215468316 0  -0.7711330414003473 0.3246428900566418 0  -0.7868579957568177 0.3242411589713776 0  -0.7622610025364445 0.3154522553554531 0  -0.7431488385198304 0.3157500769119642 0  -0.7470484099228809 0.3290877643846211 0  -0.7107098322824769 -0.02188923297611978 0  -0.6968423195465511 -0.03307941373315518 0  -0.7050770643014819 -0.0452062041946527 0  -0.7874416731406065 0.1271574170486595 0  -0.8100018987259572 0.1218511787829385 0  -0.803723145980057 0.1092032427763505 0  -0.6537351299417219 -0.2223508052715616 0  -0.6390022945893861 -0.2203614537485091 0  -0.6470428930511773 -0.2412020228470545 0  -0.8843485444218557 0.1203077465414941 0  -0.9005670223575124 0.1241956964402386 0  -0.891904339819266 0.1373537011378205 0  -0.780734872962512 -0.3814240888963211 0  -0.7636720027139818 -0.3917578652913741 0  -0.7793072907858336 -0.4000025546125384 0  -0.009542631540983455 -0.8340393877659124 0  -0.004746243850184115 -0.8576332751177678 0  -0.02071078868481183 -0.8485942270748664 0  -0.3523711848085625 -0.8338412159823982 0  -0.3421570826011181 -0.8136518035297347 0  -0.3632107499103949 -0.8163879901087224 0  -0.3369798519664855 -0.700396187041503 0  -0.3455967298400991 -0.7152622441210773 0  -0.3226115922230449 -0.7087418810767598 0  -0.4616639682678661 -0.3873787889842784 0  -0.4796811869515577 -0.3995827742132161 0  -0.4839693442552714 -0.3833460933330157 0  -0.4816495324061382 -0.5988230878733953 0  -0.4791453694333547 -0.6194504033965983 0  -0.4954325874487714 -0.6098992218129118 0  -0.07598942677810372 -0.5580482426588499 0  -0.05466192522023878 -0.5462734392547973 0  -0.05725814591762667 -0.5667734212673404 0  -0.7362308744466529 -0.4024782213624987 0  -0.7278846197349336 -0.4142621378008046 0  -0.7255646630730683 -0.3932301282164158 0  -0.8272574953138051 -0.05432220121848425 0  -0.8432888338676097 -0.0559487251195205 0  -0.8430083688136352 -0.04250389044318884 0  -0.4471694998023314 -0.3137152693914176 0  -0.4589968486965761 -0.3346629280380058 0  -0.4437009827600008 -0.3294864187641984 0  0.1187830577491173 -0.9398918338643621 0  0.1340145161596301 -0.9311320517671441 0  0.1206154811856133 -0.9240181556713636 0  0.003470967706396468 -0.78287307468588 0  -0.00301864861844418 -0.7644216685927646 0  -0.01012235772704111 -0.7772870891915227 0  0.06411626658539678 -0.8176708847825811 0  0.07748898981851503 -0.8295679604660473 0  0.08500904939490524 -0.8124803863602581 0  -0.02201253055925322 -0.7597524121556751 0  -0.03270496131164639 -0.7382920086024909 0  -0.04215078327515376 -0.7541237737031609 0  -0.8172654230543239 -0.1864129210238419 0  -0.8003994497852369 -0.2007462359906586 0  -0.8184984214064045 -0.1989611808167147 0  -0.108951906106775 -0.5559325695601538 0  -0.122353609401521 -0.5401626764731404 0  -0.1258077259824869 -0.5566776036013502 0  -0.1288044191450229 -0.628969213323385 0  -0.111687271758432 -0.6185905973816244 0  -0.1123206022843956 -0.6394193397569374 0  0.129459682389678 -0.9127937281728747 0  -0.3062913507194913 -0.8502534365339809 0  -0.3088745311444374 -0.8349848073423699 0  -0.3228701369460341 -0.8388459049179995 0  -0.5821919071770641 -0.1903123402092651 0  -0.5956330362536703 -0.2048288183677611 0  -0.5723869478708128 -0.2033506772635419 0  -0.9004249333590447 -0.01021738444872117 0  -0.9061234985508156 0.01020083867410356 0  -0.9163343055919705 -0.003653241000320086 0  -0.8501308606924335 -0.07053762722885465 0  -0.8391688996620842 -0.09117951978097175 0  -0.8343936308453686 -0.07541195056518686 0  0.03491922628234419 -0.7083235215586553 0  0.05163625546949779 -0.7253731355674897 0  0.05721696332443329 -0.7084849508255149 0  -0.8573325203605298 0.3433670940513535 0  -0.8716164816825658 0.3543439865395657 0  -0.8588646418929119 0.3561555125691751 0  -0.750307345651521 0.2369285267957594 0  -0.7448250633358843 0.2232474019023587 0  -0.7374982646104843 0.2341223759348553 0  -0.6972452756388128 -0.4229483771100225 0  -0.7041849766299946 -0.4385666650733992 0  -0.6897634665001157 -0.4361249482241101 0  -0.6142336350560864 -0.2115674987409225 0  -0.5990269613213977 -0.2210680727468513 0  -0.6205369804425765 -0.2264957499735009 0  -0.7337751138396014 -0.3817460614230299 0  -0.06423735541538941 -0.8406241415472656 0  -0.07279526281987865 -0.8552330264858664 0  -0.0802323943878798 -0.8404831187326068 0  -0.2476981798491009 -0.2440846765411376 0  -0.255228243122093 -0.2289130081826335 0  -0.2606246617389489 -0.2493457455419002 0  -0.4297722158691853 -0.6930480130959101 0  -0.4210124037420513 -0.6767231838457004 0  -0.4164782624493177 -0.6896688264566395 0  -0.3203194869259647 -0.8245532760234491 0  -0.3092966383852226 -0.8025237283973123 0  -0.3029935310151011 -0.8206593860229989 0  -0.7565538241801432 -0.4739664727290151 0  -0.7410892367124722 -0.4791938699829456 0  -0.7456962207837202 -0.467334341683422 0  -0.5545888744709112 -0.6778765184341353 0  -0.5349751792739176 -0.6833258942341506 0  -0.5487968949985019 -0.6950517420599016 0  -0.07737504025554427 -0.3944359767354562 0  -0.05882223560049138 -0.4069219909734357 0  -0.06218640590903333 -0.3918940759060053 0  -0.9101514793853021 0.1952524751189772 0  -0.8915043552441708 0.1880691174171235 0  -0.9047311546387078 0.1800619233557348 0  -0.905262219148123 -0.02731398764556849 0  -0.9119715033478218 -0.01618304483424925 0  -0.3081358437876583 -0.610256553929218 0  -0.3258605799527284 -0.6113131433013754 0  -0.3163974183662066 -0.6208634152074528 0  -0.3232197542232093 -0.5348256231432427 0  -0.3237215182328203 -0.5136047633847451 0  -0.3139235917896475 -0.5239894548466137 0  -0.8492684185147273 0.1992875702665718 0  -0.8559385810210977 0.177674811179105 0  -0.8687765075469726 0.184187138805873 0  -0.728060029105619 0.1383532451672887 0  -0.741128587997183 0.1550151917024274 0  -0.7276197325206186 0.1521546271538961 0  -0.5971107149694774 -0.6634803250708311 0  -0.5918455381856423 -0.682416301703765 0  -0.6082534789368651 -0.6763990821683107 0  -0.396725440898855 -0.1519703401282805 0  -0.4104371827951445 -0.133868726138934 0  -0.3972733285770131 -0.1381413162002954 0  -0.5313562861782688 -0.2239905329534456 0  -0.5153700548005785 -0.2370956098128962 0  -0.5175757792910456 -0.2234833207412842 0  0.1998885613818455 -0.719881203324387 0  0.1791866553158176 -0.7141503672877064 0  0.1927451572152915 -0.7054289287094462 0  0.2186800033166231 -0.8191788169663616 0  0.2032157150374902 -0.813121540979967 0  0.2072535379238019 -0.8255818193647165 0  0.2414103301756356 -0.92739187646861 0  0.2491415463735631 -0.9038029612933189 0  0.2622058181501192 -0.9184429695984657 0  0.18200964817054 -0.6609018515558629 0  0.1922004644123977 -0.6733942575134109 0  0.193971927905294 -0.6511896247090129 0  -0.6971105354671471 0.1433776089899524 0  -0.711620043974397 0.1309736906541506 0  -0.7139479939082792 0.1492595713248444 0  -0.4742086889051661 0.02191605504535118 0  -0.4556609281987127 0.02780261596796142 0  -0.4603407008753569 0.0136477533614621 0  -0.503089969727366 -0.5002286202978036 0  -0.5153376600092513 -0.5060935135397554 0  -0.4973073285986818 -0.5119076209237294 0  -0.5493674212449793 -0.6167521077062157 0  -0.5538695603447258 -0.6362394905496497 0  -0.5381785633148709 -0.6311860385671128 0  -0.0642757244519743 -0.5016464801886645 0  -0.04634905954412076 -0.5055606439892932 0  -0.05237140948348965 -0.4907883293784542 0  -0.1391386583415753 -0.4334208548196476 0  -0.116579206551392 -0.4371409490012938 0  -0.1258242415384762 -0.4229420983195344 0  -0.3373191487226518 -0.4148254352631537 0  -0.3327790302634759 -0.4021578290298721 0  -0.3234178037099931 -0.4170503842330612 0  -0.5826551161329542 -0.2908767506068596 0  -0.5637260729021764 -0.2995111145082768 0  -0.576852903364983 -0.3056964271988254 0  0.04946363666164275 -0.7984711774280144 0  0.04455873955501716 -0.8174055183789329 0  0.0356181409437623 -0.8004268221184964 0  -0.4025723161703824 -0.1775418802530583 0  -0.4039097645815507 -0.1966439938975539 0  -0.3937193344232368 -0.1877596062583659 0  -0.3858133131623993 -0.2304236245869996 0  -0.3688397085561013 -0.2322406704940604 0  -0.3786021019549677 -0.2432478502830346 0  -0.860129040370187 -0.2154598057463551 0  -0.8399355080137733 -0.2134768346661549 0  -0.8506499588074243 -0.2026051015024356 0  -0.8811565566075289 -0.3205211056373406 0  -0.888678768866541 -0.2977301432344055 0  -0.8746750687215392 -0.3096897513647282 0  -0.07913980911150678 -0.4593082946448327 0  -0.09594338963686491 -0.4736613565334439 0  -0.0795550952527693 -0.4758348768995708 0  -0.1908008792077115 -0.840972332518844 0  -0.1946327712052833 -0.8583769871989443 0  -0.1813880823319827 -0.8521688500603829 0  -0.1297968725981693 -0.6507077131885561 0  -0.1497285939057602 -0.6383340225880038 0  -0.7548095759814673 -0.1140179552511683 0  -0.7741895543916157 -0.1073721804973605 0  -0.7586574616467261 -0.0980261167307552 0  -0.750247807274843 -0.1875998735323899 0  -0.7666034997707613 -0.1949651039918936 0  -0.7662880177871074 -0.1811680560606865 0  -0.2681875000252676 -0.6941380875750801 0  -0.2765883353399147 -0.6788079317570099 0  -0.2608680456287478 -0.6801601874665426 0  -0.230292970792703 -0.7751339748192955 0  -0.2128582940451086 -0.7747234536788783 0  -0.2201957478740911 -0.7872366391852065 0  -0.8204162199236203 0.4568455867392173 0  -0.8106247903671376 0.4398495434528401 0  -0.8039789594231962 0.4605878718638335 0  -0.7737639899725288 -0.02707871250635328 0  -0.7938130751553454 -0.0285149061028158 0  -0.7859400024306448 -0.04528845677796786 0  -0.5962839453210044 -0.1758071723837879 0  -0.5967266862237394 -0.1903352247698383 0  -0.5832945815518484 -0.1765616455304951 0  -0.05676668381562631 -0.8858042684313356 0  -0.0754505708584072 -0.8904767716810249 0  -0.06867265696558422 -0.8778877631516915 0  0.03782146448367329 -0.9351
[...]
<PointData  Scalars="f_3735-2"> 
<DataArray  type="Float64"  Name="f_3735-2"  format="ascii">2.9584341165581085e-01  3.1909808555683888e-01  2.8976418924679609e-01  3.4335393817075960e-01  3.7963850669951332e-01  3.6109497661209589e-01  5.8147591764067541e-01  6.0965809732320109e-01  5.9105537783130313e-01  3.9996704199567895e-01  3.5540510225220434e-01  3.7189787333735308e-01  6.2458792758982651e-01  6.5507794138149567e-01  6.2445440163622878e-01  2.0579912698038916e-01  1.7290379566364319e-01  1.8601333907640330e-01  2.5333781401315064e-01  2.7495947666776782e-01  2.3905323842786858e-01  3.2442594929870772e-01  2.7619416639034627e-01  2.9421208150177269e-01  1.8041927177252340e-01  2.2552476712426547e-01  2.0384086516185995e-01  4.4260305409993789e-01  4.0674436033802053e-01  4.3944795058382502e-01  8.0657153141561400e-01  7.6219688941606745e-01  7.7640186488709684e-01  4.6093156488308262e-01  4.3026708218005882e-01  4.2464681279921823e-01  8.8608656291821419e-01  9.1402860845605072e-01  8.7312134860797475e-01  3.1431779502157553e-01  3.1740084352569886e-01  3.4270075291356178e-01  3.3488218721015967e-01  3.0174944749116844e-01  3.0404574882538227e-01  9.1949927703400458e-01  8.7636638938157119e-01  9.0672435680515018e-01  9.8102307262655911e-02  1.1097223479449739e-01  1.2798546818961273e-01  4.3069809738851378e-01  4.6941874052203975e-01  4.4227574571045836e-01  3.5328710668266078e-01  3.2635064727819041e-01  3.5994791567590079e-01  4.7856692303580040e-01  5.2272333293019579e-01  4.8849832662498627e-01  3.1587561288236837e-01  3.4286832630899017e-01  3.0760167169132929e-01  8.7938558358008512e-01  9.0455054678369040e-01  8.7094861172661397e-01  7.2568898852577857e-01  7.5336156983958802e-01  7.1072842372620448e-01  1.4755117379060548e-01  1.8339092681143440e-01  2.1037961899641064e-01  1.9316898174602487e-01  7.8648136922711287e-01  7.5067389122977091e-01  7.9682182077963559e-01  1.8989614040767622e-01  1.7873049399220589e-01  1.5843797781679936e-01  2.8566634213388320e-01  3.0393548318481128e-01  3.1690965793367964e-01  5.8536154959691533e-01  5.4755846509887196e-01  5.8209113591175654e-01  1.4422160807270148e-01  1.1061861475659709e-01  1.3234415706416180e-01  4.2256628619337727e-01  4.4180610581218521e-01  4.4983260987661100e-01  3.6291984904206764e-01  3.3370695829290359e-01  3.6166659064083850e-01  7.0987306997601851e-01  7.3293806842897913e-01  6.8695577921269657e-01  3.3877670252375303e-01  3.0612315252968963e-01  2.7485107724451130e-01  3.0333235660541896e-01  1.2673232274506308e+00  1.2746450043869881e+00  1.2476739997932624e+00  3.6291979362837129e-01  4.0130921977727674e-01  3.8324603010924524e-01  2.2170265425084348e-01  2.7135268123676010e-01  2.4131466122219616e-01  2.0547801005551744e-01  2.2581391506928150e-01  2.3079568126112945e-01  2.3933044687278948e-01  2.5554905061009586e-01  2.1971170661734324e-01  1.1823515472493453e+00  1.1670257501306203e+00  1.1907168789778801e+00  1.3012363803838695e-01  1.6879235122947986e-01  1.4637382991076195e-01  1.7968430181480624e-01  1.6686029502301536e-01  6.3895171937335082e-01  6.1986290235274111e-01  6.1127207394576866e-01  7.6096622618280840e-01  7.9745591369724955e-01  7.8980782858020315e-01  2.4655737996971555e-01  2.4269293112707377e-01  2.1453470221720181e-01  5.1835849725198879e-01  4.8466543001222084e-01  5.1353572470987741e-01  2.0569462489488538e-01  1.8426950462151587e-01  1.7177879227619250e-01  1.1439219067996336e+00  1.1320847589830099e+00  1.1509371436478613e+00  8.5914519200470851e-01  8.7790147665564788e-01  8.8473100555557249e-01  5.0578599799148982e-01  5.2843429735044289e-01  5.3890124523227012e-01  2.9624508063285271e-01  3.1614875963473460e-01  2.8944901149261631e-01  7.7042927283097987e-02  1.1733532546981142e-01  8.3116586241016421e-02  6.3505984265811066e-01  6.0408923144142002e-01  6.4766856503665593e-01  5.8012126361218552e-01  5.5519768833218042e-01  5.4293685204087860e-01  1.0554798841069257e+00  1.0883430440989537e+00  1.0810779221588347e+00  5.8478953760786112e-01  5.5790454748150853e-01  5.7589841355996896e-01  3.4127696130744678e-01  3.0501545835420379e-01  3.3403728466466603e-01  9.9775073110914603e-01  9.9393929111772406e-01  1.0204705804527592e+00  1.0907775396748738e+00  1.0957718839715631e+00  1.1153837286537018e+00  9.4212439734521058e-01  9.6652338946085536e-01  9.5547399313272241e-01  7.0657158197721426e-01  7.3321968800600690e-01  7.0312876739431673e-01  3.9504033115714471e-01  3.5632642248696572e-01  3.9259970318446297e-01  1.1176204455818410e+00  1.1012901430800281e+00  1.1242030943494532e+00  1.1011223299451340e+00  1.1248011753112581e+00  1.0999332306792264e+00  2.1746008181750487e-01  2.5800519866050625e-01  2.4208349395982476e-01  1.1699223523998602e-01  1.1770152846230422e-01  1.3592892038789608e-01  1.0712256276923955e+00  1.0397332120927556e+00  1.0411695210090017e+00  2.6658597426815367e-01  2.3069295092343345e-01  2.4855885821098039e-01  6.8096353376306118e-01  6.9741512916832249e-01  4.7159351024746937e-01  4.3338457599905655e-01  4.6822991937182684e-01  4.5069667340847586e-01  4.1372953478512575e-01  4.2136199040375388e-01  5.1193623099978269e-01  5.3536181993054421e-01  5.4479092323884959e-01  3.7709471589534393e-01  3.8799898811188349e-01  3.5880685243083688e-01  1.1417983479588426e-01  1.4691040858229520e-01  1.3848383975539350e-01  4.4879143530667076e-01  4.0696664316880432e-01  4.2165755316677528e-01  7.6767597571031154e-01  7.5795171932225736e-01  7.9258299321904246e-01  2.1564806801460462e-01  2.0345908633886176e-01  2.2981044542876550e-01  1.2022142009286252e-01  1.0169910763786426e-01  1.3112193574627629e-01  2.5212260517427404e-01  2.4928033419887177e-01  2.5423481864620928e-01  2.8060464868810264e-01  1.1746847557642084e+00  1.1473099510456497e+00  1.1485326390445483e+00  1.0753175967578550e+00  1.0416658453724026e+00  1.0716622176396258e+00  9.4684145184533564e-01  9.7848273366806837e-01  9.6747841734242068e-01  1.0438157443413021e+00  1.0093505360555362e+00  1.0361819497232618e+00  6.3908876456879393e-01  6.5107110501305465e-01  6.6982746014791383e-01  7.2517594841381683e-01  7.4281932775931458e-01  7.5040265105181381e-01  1.0565552448794098e+00  1.0849489795512040e+00  1.0818481395944501e+00  8.9979234059726776e-01  9.2267033006082921e-01  9.3522337950632706e-01  1.1324507476474246e+00  1.1376739190583949e+00  1.1168895970289217e+00  6.2405773448868207e-01  6.2706319045854697e-01  6.5545145292105156e-01  6.9477338319774051e-01  6.5548331346543842e-01  6.9349620201872886e-01  7.5397104888239741e-01  7.6096081621773159e-01  7.8129906024748685e-01  5.3912289317303264e-01  5.7197412637674572e-01  5.3691606988982443e-01  2.3527960558840685e-01  2.6702283444609526e-01  2.7570860425801280e-01  4.3777003533603154e-01  4.7182069191522685e-01  4.4852349188301488e-01  2.9698788148618416e-01  3.4552771171611996e-01  3.2678120486905743e-01  5.9044323252073305e-01  5.8681593559968048e-01  6.0611176799881261e-01  4.8843272462927506e-01  5.2814270535113239e-01  4.9260296298970285e-01  7.7263971233688677e-01  7.9172324446961384e-01  8.0188407630387692e-01  1.5105449288419898e-01  1.5889645893499296e-01  1.2594362927542097e-01  3.7250332053643043e-01  3.6061056908141059e-01  3.4019688211393734e-01  6.2549844771422092e-01  6.3945508865966094e-01  6.5046369663035319e-01  9.1683237299779774e-01  9.3032072182278447e-01  9.0491433251234266e-01  1.0576597751483201e-01  1.1208336885865637e-01  1.2439030107577376e-01  1.5287003392714865e-01  1.7990698820826220e-01  7.3275791832075166e-01  2.7510985836008722e-01  2.8693084696492188e-01  4.2134921697319022e-01  4.3684550335438493e-01  5.0258121487921215e-01  5.3967551185850759e-01  5.3424441351223029e-01  1.3368771040259526e+00  1.3281331496388800e+00  1.3541999655928283e+00  4.8296753270507081e-01  4.9283450307504212e-01  5.2421790757271891e-01  2.6456335236910122e-01  2.9187619348905564e-01  2.8186457800089121e-01  1.5970521379506453e-01  1.3655633721744381e-01  1.6884544874289883e-01  2.2456096880174012e-01  1.8850047404768427e-01  1.1970498601461206e-01  1.1027178503550622e-01  1.3457978806457543e-01  1.9890237773345681e-01  1.3370402146008778e-01  1.0376842901694128e-01  1.4724608619054699e-01  3.8698213963043032e-01  3.5378804838748673e-01  8.3945391382574586e-01  8.0213840568303119e-01  8.0580201944729657e-01  7.6001280300512419e-01  7.7369055203671400e-01  1.2585726525386090e-01  1.5007179326519096e-01  1.5891346338403459e-01  1.0734177287121338e+00  1.1057706334107456e+00  8.4379262020746504e-01  8.2405116182519600e-01  8.5033802504046041e-01  1.2250041071733675e+00  1.2246906509928783e+00  1.2419601102318543e+00  1.0352744297433629e+00  1.0410154683192812e+00  1.0657521429397956e+00  1.1005684229815915e+00  7.0854496424985744e-02  9.2781480251045989e-02  6.1051668959607647e-02  1.8842451342614830e-01  2.2990524347989702e-01  2.1758995199721587e-01  3.7359044786975304e-01  3.6642648699399333e-01  4.0279863434419105e-01  4.8224229383740708e-01  5.2605004690930979e-01  5.1673969380378826e-01  3.7386297602709928e-01  4.1126497679638108e-01  4.3600409131215018e-01  3.9563579561257678e-01  4.0142171812645716e-01  1.0744319162458459e-01  8.3583564866050633e-02  7.8157275897221434e-01  8.1760015178883705e-01  8.0727234787718816e-01  6.6843218013145378e-01  6.6076704466322866e-01  7.0363791910520801e-01  4.4325376404176986e-01  4.8285592087807189e-01  4.4675482255761712e-01  2.0347513729191727e-01  1.6112149553917060e-01  1.6600842778551878e-01  1.8167423134891850e-01  2.1487281473421488e-01  1.9514241414702765e-01  3.2072942528535392e-01  3.4769923938036851e-01  3.2026705171551539e-01  4.1101150526536101e-01  3.8679111498672902e-01  4.0770561086596713e-01  4.4428352633424978e-01  4.1414599321000956e-01  4.2383716082983824e-01  5.9428124216713929e-01  5.8366323994420466e-01  5.6989963852165948e-01  2.4245816446648003e-01  2.0429718619975309e-01  1.3070247178959815e-01  1.3863295951007645e-01  1.6798334413883242e-01  6.8912001745944740e-01  6.4421371887006262e-01  6.6906638757797177e-01  3.9397598248814486e-01  3.8686340627133758e-01  4.2501559300709829e-01  4.7800490946117175e-01  4.9866367515568394e-01  4.9553895157930988e-01  5.0265853840066621e-01  5.2575530350269672e-01  6.8339096823521572e-01  7.2397156122936146e-01  6.9117428644731238e-01  4.1187346931747221e-01  4.3919383585200822e-01  4.1486398192236390e-01  1.2366085963490701e+00  1.2278447736686329e+00  1.2495098992035021e+00  1.1680252433186185e+00  1.1406117861107599e+00  1.1354771536688268e+00  1.1685558331607442e+00  1.0303429651034816e-01  7.7113801900016279e-02  7.7578610998678382e-02  1.7383114881394524e-01  1.3919489995798237e-01  1.4455456924117624e-01  5.1053138486820537e-01  5.5263102450297075e-01  5.3667241494697726e-01  7.5672530271947214e-01  7.4876510756289849e-01  7.7617497490892362e-01  5.4405096776526674e-01  5.0847374065170436e-01  5.2079086270616337e-01  7.5288756174112881e-01  7.6290438000282679e-01  7.2801350379481589e-01  1.3316655295478734e+00  1.3380129508890968e+00  1.3518649921069319e+00  8.0783349866100684e-01  8.4447257505089923e-01  8.4172170388030965e-01  2.2250270074966783e-01  1.8353296258964227e-01  1.4575382659686439e-01  1.4172515516188297e-01  1.0803373592648673e+00  1.0769342353187794e+00  1.1029688318602322e+00  8.8268564014585216e-01  8.9698437774657747e-01  9.1113468997827807e-01  4.3855640711086424e-01  4.3711231495307312e-01  4.7414109639054697e-01  7.1369376626092507e-01  6.8326202229996991e-01  6.7156534200376350e-01  9.4380658838909437e-01  1.0524026536097666e+00  5.2358255239564522e-01  5.2324128805829206e-01  4.9995352018597661e-01  7.1785031378788777e-01  7.3626613777545125e-01  9.1874900595658671e-01  8.9222910147129053e-01  9.0162085816934712e-01  9.2008621844386684e-01  9.6120342011075544e-01  9.3777547380710757e-01  9.3799196238435867e-01  6.1536964854478327e-01  6.0972425370643868e-01  5.9340461611276085e-01  9.0904144236133255e-01  8.7631324159074409e-01  8.7788234749346772e-01  7.8143559029671117e-01  7.6235301635237429e-01  1.3267373817244985e-01  1.6970382335663103e-01  1.7636404616258608e-01  1.1274582627957861e+00  1.1620225309208398e+00  1.1572431028135384e+00  1.1214071880288323e+00  1.1559134231210497e+00  1.1491694452541190e+00  3.4259844021472957e-01  3.7229443514031224e-01  3.4569658575919371e-01  1.7344911309388777e-01  1.6187758687811557e-01  1.9351716909887334e-01  4.5782299254036979e-01  4.8669761069063278e-01  1.5547055835606780e-01  1.9447883858016030e-01  5.9843311337501359e-01  6.3614926854116882e-01  6.1092000174572714e-01  6.4108007336271955e-01  5.9987763584406273e-01  1.9170393656288276e-01  2.0136820895489371e-01  1.7241977154437532e-01  5.8520555120402362e-01  4.4833962086074330e-01  4.2153488158425534e-01  4.0853517903551151e-01  5.8465122806030134e-01  5.5223829415483372e-01  6.0291680371240197e-01  3.6064475503890453e-01  3.3566174747019800e-01  3.6348575275406886e-01  4.9042889377409177e-01  4.9384565863403540e-01  5.8788654814832098e-01  5.4705875810942928e-01  5.6058041359542976e-01  5.7059277505872663e-01  5.7023341278096051e-01  3.6168768729291934e-01  3.2869521753771347e-01  3.3252946311424336e-01  3.0678836945171906e-01  3.2435460756668438e-01  4.6666449415081507e-01  4.7124243435938790e-01  4.9272042071621508e-01  3.5938999935908289e-01  3.4434428449620424e-01  3.3467712780313469e-01  3.1740047774550034e-01  9.3919842558907229e-01  9.0321487206620577e-01  9.3661721435856593e-01  4.3421933886557718e-01  4.6994648234986075e-01  4.2360004540187068e-01  4.6528768775361729e-01  4.8247621739755586e-01  4.5750228982244773e-01  1.1934688344306326e+00  1.0083673188934743e+00  1.0419063576663772e+00  1.0649478957826779e+00  1.0319871685949975e+00  9.2508155302308392e-01  8.8714298113598711e-01  9.3045095055365901e-01  8.4274016350331926e-01  8.0412473345743984e-01  8.2244458750324456e-01  8.9097616903957877e-01  9.2272364237858839e-01  9.0442842919870470e-01  1.1581583926060126e+00  1.1613306765320848e+00  9.0466725315925434e-01  8.9700957874703346e-01  1.3548845501291903e-01  1.2163906013480105e-01  1.6351723026608131e-01  2.1794563729351901e-01  1.9032059612590610e-01  2.2869040646842279e-01  1.6593697088255233e-01  1.2011217815021705e-01  1.4629804851943837e-01  9.6150095768726240e-01  9.8860639299497866e-01  7.7895027320802601e-01  7.9335503981852951e-01  8.0789202968117368e-01  4.7242549993504795e-01  5.1285795668720957e-01  4.9939596842752776e-01  5.7721781053603216e-01  5.3259442820217606e-01  5.6739964281380983e-01  1.7652629790795540e-01  1.5921695870759162e-01  1.8850365464878596e-01  2.4777153869462398e-01  2.2795626439997116e-01  2.2298523882216748e-01  3.1475418464862676e-01  3.5156787260365208e-01  3.4813216733053814e-01  9.9445021722659921e-01  1.0183623112383242e+00  9.7450042013630489e-01  9.6705912597827670e-01  1.0074603294822648e+00  9.9120978957653672e-01  7.0962419850468961e-01  7.2432743354645146e-01  6.9002157014017618e-01  6.9738772229269030e-01  6.9540023781253579e-01  7.2449325112229135e-01  2.6283353618661021e-01  2.7151120729792250e-01  2.3821129837170318e-01  2.4482104890240286e-01  2.4058087152874702e-01  2.2102764777738146e-01  1.6865954212421047e-01  1.8768881874673893e-01  1.8135161318610402e-01  4.2644673958268225e-01  4.5212839785645803e-01  4.5646403086758425e-01  3.8720591154584927e-01  3.5037986116559555e-01  3.7729696766802984e-01  3.0132366718481837e-02  2.7828323673234005e-02  5.2724687386366438e-02  8.6737379861994568e-01  8.8282733467046992e-01  8.5465152799112987e-01  9.6200071780989882e-01  9.3211304517320304e-01  9.1816293035574106e-02  8.8560257861941480e-02  1.1637477188071606e-01  7.7612901765164100e-01  7.3593623466960401e-01  5.1549692037652028e-01  5.4645677003162008e-01  4.9515680637721415e-01  2.2318478683641080e-01  2.0835255910563319e-01  3.7740139074954565e-01  3.6844817804469082e-01  3.5367619643521592e-01  1.7069068693342693e-01  1.4476217992315107e-01  1.4699442498899390e-01  2.5921039408046737e-01  2.7133429855532720e-01  2.3674079917364854e-01  5.1367954389979453e-01  5.6164698502773314e-01  5.3870834959554836e-01  3.5038953609702150e-01  3.8153103863317567e-01  3.3838754621169115e-01  1.0750967385372695e-01  1.4321546533119472e-01  1.4400674434056340e-01  8.2875665523432207e-01  8.3332019586882744e-01  7.4035988380957518e-01  6.9348158283663242e-01  6.6372731948013086e-01  5.7434433188614897e-01  5.4974605101644913e-01  5.8278007485871752e-01  1.4367074032123828e-01  1.4749075758382962e-01  1.2955194092130110e-01  2.8312194576915012e-01  3.0182318477737269e-01  2.7540258877292845e-01  3.8307394839339143e-01  1.3074516209477910e-01  1.1817713401098488e-01  1.5683273123405847e-01  7.2314535942504060e-02  8.5619933960737180e-02  5.2704718336816274e-02  6.4959948310712626e-02  7.6263485776197446e-02  3.6094936383738518e-01  4.0365446369356506e-01  3.9059194540023634e-01  6.8112123394865465e-01  6.5935738454633774e-01  9.6190160152323112e-01  9.3685960064038409e-01  9.6319459102371552e-01  1.0000793666358434e+00  9.5492864589233040e-01  9.7446086789562303e-01  8.9820058647935419e-01  9.2277515542878652e-01  9.3176252296948980e-01  1.0153589249032535e+00  9.9232600278335570e-01  1.0384317576305255e+00  8.8581475795532094e-01  8.9016976645566503e-01  9.1306373374895933e-01  8.6664685990352086e-01  8.4016027812028948e-01  8.3816022425641967e-01  1.1033638602193721e+00  1.1086157738088505e+00  1.0903388166436914e+00  1.9461302213633036e-01  1.9579208921505342e-01  2.1462125604852086e-01  1.7530517101961018e-01  1.2141158946509214e+00  1.2029191367787082e+00  1.2328880847821555e+00  1.2422627958780863e+00  1.2613242516829333e+00  1.2781545810563484e+00  1.5766032381422604e-01  1.9793698312579963e-01  1.7194969620027414e-01  3.0424158799155293e-01  3.4157695593437909e-01  3.3754007301057232e-01  3.7530395366710895e-01  9.9580933954286868e-02  6.6715711251639442e-02  8.7027652025696456e-02  7.4116321132585705e-02  1.0268410704753152e-01  9.8232114327622272e-02  2.3867837989736476e-01  2.7161355125298925e-01  2.2697639236782774e-01  1.1962147808336576e+00  1.1746251710895486e+00  1.1647783891700982e+00  1.2149080117296052e+00  1.1761920045619099e+00  1.2327769943852551e+00  1.2836675033046736e+00  1.2600754859704453e+00  1.2922668261987573e+00  1.2395864434260897e+00  1.2103568576592105e+00  1.2332828641950380e+00  6.9011954715827928e-01  6.8768274115153183e-01  6.5565515413079767e-01  5.7348037110744954e-01  1.0223742062200796e+00  9.4059870913356924e-01  9.6166835876708689e-01  9.6644087618267482e-01  7.7369920192191755e-01  8.1053978539969129e-01  7.8129178237473984e-01  8.3852022327752307e-01  8.6963758232011446e-01  8.3970851324941453e-01  0.0000000000000000e+00  3.2844323981553271e-02  2.2261415408085655e-02  5.4149002835350102e-01  5.8781976767486011e-01  5.8295071890016159e-01  2.7136762121494268e-01  2.4661028013475383e-01  8.6046676874247818e-01  8.4312938407248017e-01  8.2876421138546419e-01  7.7230288010655068e-01  8.0524945127633774e-01  7.5409052836943613e-01  7.8241944256807128e-01  8.0051365321455192e-01  2.4125617546126474e-01  2.6470586308013017e-01  1.0076537789016946e+00  9.7946714521959732e-01  1.0108748261024743e+00  9.2368111893754690e-01  9.4275155229685248e-01  5.8175248515799549e-01  5.9138534910731677e-01  5.5984906320206329e-01  5.0944211552320839e-01  5.4937432657112584e-01  5.3216755378632330e-01  6.4226597056503654e-01  6.8265830374736347e-01  6.5778597759181789e-01  7.5664037853305743e-01  7.9719347187509981e-01  7.6470623085306288e-01  1.0583335438833059e+00  1.0834898291321864e+00  1.0539635467154320e+00  8.7843766570679804e-01  8.7302865223772497e-01  9.1094742040507193e-01  5.1943989403623148e-01  4.7851502669536994e-01  4.8888949084732952e-01  3.2484686924194839e-01  2.9146941676584809e-01  2.9757357677180662e-01  5.6121696995394066e-01  5.9774181334864840e-01  5.6549849011575637e-01  4.3661465564370766e-01  4.6689026415401758e-01  4.3630685936630004e-01  3.9260697760261498e-01  3.8013442517359730e-01  1.6753555984269608e-01  2.025463396