<?xml version="1.0"?>
<VTKFile type="UnstructuredGrid"  version="0.1"  >
<UnstructuredGrid>
<Piece  NumberOfPoints="785" NumberOfCells="1485">
<Points>
<DataArray  type="Float64"  NumberOfComponents="3"  format="ascii">1 0 0  0.9510565162951535 0.3090169943749474 0  0.8090169943749475 0.5877852522924731 0  0.5877852522924731 0.8090169943749475 0  0.3090169943749475 0.9510565162951535 0  6.123233995736766e-17 1 0  -0.3090169943749473 0.9510565162951536 0  -0.587785252292473 0.8090169943749475 0  -0.8090169943749473 0.5877852522924732 0  -0.9510565162951535 0.3090169943749475 0  -1 1.224646799147353e-16 0  -0.9510565162951538 -0.3090169943749469 0  -0.8090169943749476 -0.587785252292473 0  -0.5877852522924732 -0.8090169943749473 0  -0.3090169943749476 -0.9510565162951535 0  -1.83697019872103e-16 -1 0  0.3090169943749472 -0.9510565162951536 0  0.5877852522924729 -0.8090169943749476 0  0.8090169943749473 -0.5877852522924734 0  0.9510565162951535 -0.3090169943749476 0  0 -1.110223024625157e-16 0  0.4510565162951535 0.2298247742126793 0  -0.07919222016226819 0.5 0  0.4217401972019558 -0.2701752257873207 0  -0.4664690173352599 0.1823899734948475 0  -0.3579604780797941 -0.3579604780797938 0  0.08947756573959761 -0.564939116217821 0  0.2920115546147195 0.5731049448157398 0  -0.6379736825905938 -0.1331202236553083 0  -0.5008003933374412 0.5008003933374412 0  0.6995191145456661 -0.1107929434536306 0  0.142039521920206 0.2787682579175257 0  -0.3334887362273707 -0.6545084971874736 0  0.1245525093718384 -0.2698283057066694 0  0.394121195831843 -0.5736904951771631 0  -0.3634291792402099 -0.07798855321373677 0  -0.7398752304198022 0.1266395525571908 0  0.5513406906673669 0.5513406906673668 0  0.06772072383772594 0.7330026833223602 0  -0.1798257626464556 0.2277898049615374 0  -0.1329363554971779 -0.2250241225826161 0  0.2899847546250717 -0.01159061002844763 0  0.7178334616361693 0.1634954202353548 0  -0.185558029016192 0.7298829572732783 0  -0.5575821515891235 -0.5237174003589158 0  0.6636796672438613 -0.3700844779107332 0  -0.1473869834727682 -0.4898672660924318 0  -0.1245776731282009 -0.7865524724078699 0  -0.7047576755565585 0.3676611205918164 0  -0.7200632558821398 -0.3535872110403818 0  0.1059826075223748 -0.795065377569524 0  0.8800367553350505 0.4484011233337103 0  0.623199147317663 0.3525294878401746 0  0.5129820594521588 0.01406716385861899 0  -0.2901427146123197 0.4232796753639339 0  0.6984011233337102 -0.6984011233337104 0  -0.4012649964410931 0.6952739930058706 0  0.2729833322899929 -0.4096530452196732 0  0.3012581447838918 -0.7510272980442365 0  -0.8137027520495476 -0.05218979815199046 0  0.4331943037813432 0.6994662051624437 0  0.4096672220709169 0.4191323268585566 0  0.1043321860738427 0.5471012642541169 0  -0.1964715282981352 0.02977353470457396 0  0.2552131475805349 0.7680603542530016 0  -0.5388598112947428 -0.3431837635368604 0  -0.5797382542202413 0.03959248166636803 0  0.009584998068538048 -0.4058038127633932 0  0.1545084971874738 0.9755282581475768 0  0.4973115362790197 -0.4300662553549759 0  0.5658689724588636 -0.5882049478260758 0  0.2422046756816651 0.4131071900577793 0  0.7836508779194769 0.3146499317110243 0  -0.1545084971874736 0.9755282581475768 0  -0.06024135378981482 0.8388279256599832 0  0.8224179041086225 0.01875666381115074 0  0.9755282581475768 -0.1545084971874738 0  0.1492029128681321 0.09954782333993309 0  -0.007766320725004716 0.1830271833708655 0  0.3053451802085407 0.1526019885243211 0  -0.008583573074307321 0.3493769050054867 0  -0.2248586819964352 0.5721497532038938 0  -0.6984011233337102 0.6984011233337104 0  -0.6608599644184795 0.5232054702963955 0  -0.4379831721234783 0.3465173839916844 0  0.78947533516742 -0.2553493950128032 0  0.5377785018220788 -0.1506580215248616 0  -0.4377018126721021 -0.2194786956927773 0  0.9755282581475768 0.1545084971874737 0  -0.8135818870758709 -0.2173971224509217 0  -0.8800367553350507 -0.44840112333371 0  -0.8800367553350504 0.4484011233337104 0  0.8800367553350504 -0.4484011233337105 0  -0.6984011233337104 -0.6984011233337102 0  0.6984011233337103 0.6984011233337103 0  -0.4484011233337102 0.8800367553350505 0  -0.4484011233337104 -0.8800367553350504 0  0.1545084971874735 -0.9755282581475768 0  -0.1545084971874739 -0.9755282581475768 0  -0.9755282581475768 0.1545084971874738 0  0.4484011233337103 0.8800367553350505 0  0.4484011233337101 -0.8800367553350505 0  -0.9755282581475768 -0.1545084971874734 0  -0.3127199235709721 0.1392534573254163 0  -0.005479567850930206 -0.6874046165737091 0  0.2732479409242113 -0.1829771259830817 0  0.1418810278893715 -0.0836379635813527 0  0.004538992852202391 -0.15446060603175 0  -0.2853499925602263 -0.2239500765044786 0  0.4567744071463516 -0.7194815091863737 0  0.2407354298475123 -0.6063519260829316 0  -0.6189916801537911 0.2320956117698647 0  0.6914879155064673 0.4896037129438954 0  -0.1790968367221579 -0.6415245347002975 0  -0.3212528653011592 -0.8027825067413136 0  -0.4953997049317194 -0.6745488295647377 0  -0.3019794247314472 -0.5026245467723092 0  -0.5503379494258648 0.6488635672452867 0  -0.1526806950398258 0.3736888875971234 0  -0.3677221816356187 0.5553972409288912 0  0.4114570176646632 -0.08544454673099088 0  -0.3115221870742588 0.2814617094129646 0  -0.5055096840583726 -0.08161026592659262 0  -0.4207091841266609 0.04992126597993612 0  0.8394524656852788 -0.1204728868496304 0  -0.8092094227335564 0.2598108991006964 0  0.323275210824397 0.2948523260610789 0  -0.01235717006850368 0.6206762832191056 0  0.5723120307309651 0.1478612873198991 0  0.6584453108854001 0.0296143784812711 0  -0.1127073123157568 -0.08060902155425154 0  -0.3263472417314189 0.8127807834423398 0  -0.5693189598496932 0.3829729594944991 0  0.1787115426866188 0.6583053932958268 0  -0.2086945469431951 -0.3537063371349133 0  0.1413875674469653 -0.4006527365317505 0  -0.8825665179032465 0.06059258382501253 0  0.644423923763579 -0.2353002930398254 0  0.6873112429813564 -0.5116720902927442 0  0.5622403797493952 0.6812145165111156 0  0.4206022107082307 0.5494267599564201 0  -0.6985923484076459 -0.4957346960056245 0  -0.4275853811955493 -0.5583578671446736 0  0.1085975446525227 0.4135614629143593 0  0.8462315462026486 0.146118149748369 0  0.0718775524803872 0.8683064513691334 0  0.2157671749860278 -0.8623003278851888 0  -0.0009650574677971344 -0.2802933617576216 0  -0.6918203030037906 -0.01878988057032068 0  -0.2381679848617855 -0.08884164997446616 0  0.423770719651625 0.1052277906161352 0  -0.04008614995957274 -0.5625247949542947 0  -0.1838372862262216 0.8544504343113826 0  -0.06228883656410056 -0.8932762362039349 0  -0.2167973337515742 -0.8688044943515117 0  0.5422127886147651 -0.3110393647923049 0  -0.08715913041914175 0.08797997509234301 0  -0.4554204244795622 -0.4363932914340152 0  -0.8358691411028879 -0.3329048731086893 0  -0.696161304464804 -0.2369706844702208 0  -0.5584023614893824 -0.2239903645074836 0  0.1899841503682763 -0.7125800017390629 0  -0.7645428941125212 0.4685002778378229 0  0.06385263338978434 -0.9031496607807421 0  0.1885230304214117 0.8638639632561416 0  0.7840064636769384 -0.375682112498297 0  0.20078000365488 -0.4988085223509479 0  0.3065188648271355 -0.2963540786387833 0  0.3818589112326135 -0.4559984283196847 0  -0.3101348374984462 0.02265782905399914 0  -0.09274097508423339 -0.3512064167914866 0  -0.6034356931010622 -0.6308547114517774 0  0.5306709666442585 0.4314779253418129 0  -0.04412882481905579 0.7280335190386622 0  0.368139879099501 0.7958703882135997 0  0.5664333444162233 -0.6996425847768714 0  -0.6116455351171063 -0.4268731036572567 0  -0.4025747561849136 0.4508638281790917 0  -0.2867957698889448 0.6713445967088895 0  -0.4986338823410387 0.7454077904527141 0  -0.1197223386227034 0.6012931190607056 0  0.6019841841703942 -0.0631137624285925 0  0.4793630357317586 0.335191930278104 0  -0.4057080951926841 -0.7351100538182147 0  -0.2500487025609878 -0.7222647261547557 0  -0.5202389861383073 0.2762579513581566 0  -0.004903510438664035 -0.7983375068467664 0  -0.8677303216271283 0.1682446337113246 0  0.9632923872213652 -0.2317627457812107 0  0.6359382133354268 0.2407019555277372 0  -0.1954327480994572 0.4704960404955171 0  -0.09318292723014725 0.2871443445734201 0  0.6543968779059033 0.5953449360951739 0  0.5860085732792212 -0.4855437761655895 0  0.02433540313127336 0.477708088704549 0  0.2050327353918737 0.1915327024870737 0  0.3019600516521567 -0.5224112525625693 0  -0.4559197183044352 0.6082074424089278 0  0.9877641290737884 0.07725424859373685 0  0.8445268748549989 -0.5180931878130919 0  -0.7537090588543289 -0.6430931878130917 0  -0.8115083307004233 0.366542657984397 0  0.9877641290737884 -0.0772542485937369 0  0.3157389177020913 -0.8506306959163319 0  0.3661954416712823 -0.6720495099691162 0  -0.2110888953948772 0.1307100872489919 0  0.2771278415803478 0.671246208704549 0  0.7755166821205643 0.4221168689217691 0  0.09258535306910454 -0.6974063904331503 0  -0.5180931878130919 -0.8445268748549989 0  -0.5636233828952756 0.1431321340909777 0  0.2093668298544761 -0.3254094489515746 0  -0.7452216441755674 -0.1347434040272279 0  0.3432419291961207 0.4903131612096761 0  0.9632923872213652 0.2317627457812105 0  0.8654704589902047 0.2558653845079852 0  -0.7721646645307192 0.03531578018689553 0  -0.9877641290737884 -0.07725424859373664 0  0.3972451269157145 -0.7968729007064921 0  0.2047656419391337 0.5125131148681941 0  -0.7107486842465451 0.2689580543411794 0  -0.8747057134039039 -0.1348381340198916 0  0.9075822029513861 -0.02495856901956285 0  0.4175383422250996 0.009896499472273557 0  0.1611803648706316 0.7520641323258265 0  0.293383900196892 0.8562452162748729 0  -0.9632923872213652 -0.2317627457812101 0  0.4226327034146973 -0.3675580274712185 0  -0.6211574309532173 -0.2954782403839667 0  0.5073765864410278 0.7586347332656206 0  0.3688379632316558 0.6293192053628369 0  0.484958551257918 0.6195737597560269 0  0.08576045253602423 0.639999587219085 0  -0.8445268748549991 -0.5180931878130914 0  -0.7797212151374868 -0.4352936457408597
[...]
<PointData  Scalars="f_1261-2"> 
<DataArray  type="Float64"  Name="f_1261-2"  format="ascii">0.0000000000000000e+00  0.0000000000000000e+00  0.0000000000000000e+00  0.0000000000000000e+00  0.0000000000000000e+00  0.0000000000000000e+00  0.0000000000000000e+00  0.0000000000000000e+00  0.0000000000000000e+00  0.0000000000000000e+00  0.0000000000000000e+00  0.0000000000000000e+00  0.0000000000000000e+00  0.0000000000000000e+00  0.0000000000000000e+00  0.0000000000000000e+00  0.0000000000000000e+00  0.0000000000000000e+00  0.0000000000000000e+00  0.0000000000000000e+00  1.7101754421961093e+00  1.0964070683539517e+00  1.0928808973031088e+00  1.1011934149405689e+00  1.1040672587257174e+00  1.0946298186255967e+00  9.4785798245919062e-01  7.8747370525904281e-01  7.6031124172145248e-01  6.2929622575826838e-01  6.2640145862199159e-01  1.4594768274282792e+00  5.7222903294107252e-01  1.4763729310902614e+00  6.6194541845923394e-01  1.3581610949945306e+00  5.3256599914154956e-01  4.6011977523721015e-01  5.6942437594156903e-01  1.4875934606445451e+00  1.5279802561392382e+00  1.4895448751705449e+00  5.6398347347188205e-01  5.3218266254755653e-01  4.9768079015890393e-01  5.0867098560413704e-01  1.0779896005009246e+00  4.2861178010828388e-01  4.2537477866396201e-01  4.2214250866594666e-01  4.1093926189721514e-01  0.0000000000000000e+00  6.1715467479344943e-01  1.0812076426982726e+00  1.0797722040737476e+00  0.0000000000000000e+00  4.1954823251337797e-01  1.1227389295059704e+00  3.9939228638720259e-01  3.8620724347925117e-01  3.7106358439343484e-01  9.1708656490170160e-01  9.8666917510153196e-01  1.6032954971062350e+00  3.9986561661375974e-01  7.9854149470227231e-01  9.3150186522283274e-01  1.2931460751945851e+00  0.0000000000000000e+00  7.5611717120095612e-01  3.9486855104601210e-01  1.1490313021569183e+00  3.1788926961709862e-01  0.0000000000000000e+00  3.2783058375529117e-01  3.6637892635025016e-01  0.0000000000000000e+00  1.6206305073464096e+00  1.6211780774973310e+00  1.4106719773459810e+00  1.3962648943191387e+00  8.5438643077939425e-01  0.0000000000000000e+00  3.2395481694028194e-01  9.8225573770329300e-01  3.5055646986896444e-01  9.7775516456546652e-01  1.1293957857387393e+00  0.0000000000000000e+00  3.2372996603369242e-01  0.0000000000000000e+00  0.0000000000000000e+00  0.0000000000000000e+00  0.0000000000000000e+00  0.0000000000000000e+00  0.0000000000000000e+00  0.0000000000000000e+00  0.0000000000000000e+00  0.0000000000000000e+00  0.0000000000000000e+00  0.0000000000000000e+00  0.0000000000000000e+00  0.0000000000000000e+00  1.4065213507088590e+00  6.8283792912265118e-01  1.4277025383842044e+00  1.6373824457979016e+00  1.6427545125614373e+00  1.3740935819337576e+00  3.0046772103617969e-01  7.6503957067541761e-01  7.4800072951041352e-01  3.1457707004274560e-01  7.3408384529863357e-01  2.7152280999548795e-01  3.4101457943167024e-01  9.1671173044960008e-01  3.0219545703466771e-01  1.2995846260341861e+00  7.2980215077497956e-01  1.2705987626307746e+00  1.2707241035484624e+00  1.0838002296019009e+00  1.2618676644904505e+00  2.9717507724240994e-01  3.0059938726448970e-01  1.2319337637513186e+00  8.3965527834213505e-01  9.0919502051966539e-01  7.5100957368818955e-01  1.6582851828922651e+00  2.4204699255506271e-01  6.8345660942780295e-01  6.9218383299495312e-01  1.2860566903366883e+00  1.2575364120352039e+00  2.1959129428373275e-01  6.8664879325307360e-01  2.9572245185145007e-01  2.3127737746368465e-01  6.7344495109122415e-01  2.9124394487296129e-01  6.4852915170014214e-01  1.2542411104117566e+00  2.7824588629846214e-01  2.6114205960824183e-01  2.1483261191492528e-01  1.4994115910587387e+00  6.7567867855871766e-01  1.5400206614230862e+00  1.2374006798991459e+00  9.6673085925044266e-01  2.4939246343700994e-01  2.0886305829310239e-01  2.0391891829367598e-01  8.2375182348737952e-01  1.6688851269317833e+00  8.1773710823353563e-01  1.9982169704151717e-01  5.6775825752994113e-01  8.8109441372775699e-01  5.6667168721848249e-01  2.0150416968021836e-01  1.8297308709509966e-01  2.3089735182354715e-01  2.5205634204965144e-01  1.0244546572825133e+00  1.2525362588781555e+00  9.0145264835619854e-01  1.4576553490289912e+00  1.3692681273763401e+00  2.4729503817329829e-01  6.9104279616715525e-01  5.8648271867687563e-01  2.4665635553021464e-01  1.9745428511438767e-01  5.4535779681018237e-01  8.7666360906969998e-01  5.8580360176713675e-01  1.9995248640872806e-01  8.5432400425818811e-01  8.7022634672921162e-01  9.2596515594942830e-01  3.3442611439086234e-01  5.1004699230801875e-01  9.1278972538240466e-01  4.2112652832858177e-01  2.1997203310626154e-01  0.0000000000000000e+00  7.0009405060232965e-01  1.0897841465538589e+00  1.4713045467308454e+00  2.2238566275573010e-01  5.1465297771074703e-01  1.1565882331640549e+00  1.5049321325294522e+00  8.7758483858645486e-01  5.1550441900881738e-01  0.0000000000000000e+00  0.0000000000000000e+00  0.0000000000000000e+00  2.0353184615879388e-01  0.0000000000000000e+00  1.7980934196921641e-01  4.9868218127378500e-01  1.5450762035832581e+00  5.9718215291394894e-01  2.2338266346098920e-01  6.4556074791164597e-01  0.0000000000000000e+00  9.2831980897344446e-01  1.3281451803712399e+00  5.1828354289411938e-01  8.8754821257196026e-01  0.0000000000000000e+00  1.8608926699481379e-01  4.7891038458832508e-01  0.0000000000000000e+00  2.1708272525233219e-01  9.9221656333680419e-01  5.1087954853177864e-01  2.1490983464900312e-01  1.7701888708825483e-01  1.2752240472805079e+00  4.8930126084742587e-01  1.8836780536762016e-01  0.0000000000000000e+00  9.7506170984403806e-01  6.8962669954768130e-01  1.7393927882871726e-01  5.9071706425763182e-01  4.5367197365607026e-01  7.7955786439291275e-01  0.0000000000000000e+00  2.0360876507020520e-01  0.0000000000000000e+00  2.0631902028923310e-01  1.6026772756698684e+00  8.9537577806567747e-01  8.7923441704036198e-01  1.1524269780408254e+00  2.1630407059819412e-01  1.2493204531969608e+00  1.2686934341088001e+00  1.6131030587446293e+00  1.6851579866522228e+00  1.6731808820214416e+00  1.5838953805617100e+00  1.5281517959186168e+00  7.5527902156188642e-01  8.7666438701469374e-01  1.3229833523232162e+00  1.0059195823846758e+00  1.7037970397792757e-01  7.7083549185044342e-01  2.0404782037705724e-01  4.3668918051756844e-01  0.0000000000000000e+00  7.7444506676037872e-01  4.7447778980353844e-01  4.9070886798078378e-01  1.1135449573481075e+00  1.2222153067039117e+00  1.4059048207657296e+00  1.5946458067304119e+00  1.5183829279931871e+00  6.1713586393669650e-01  4.5458576136472195e-01  6.6334919712299678e-01  1.3930626579156520e+00  1.8122856360290454e-01  1.1099945769625370e+00  2.1507365780824780e-01  2.0452041390664144e-01  3.8994526253911277e-01  5.2203317838098540e-01  1.1126495277671320e+00  1.2790749915959381e+00  1.5083719281480741e+00  1.4231930787501670e+00  1.5476581718104105e+00  1.5166549587116918e+00  0.0000000000000000e+00  1.7010175444319245e-01  1.9179577854624213e-01  4.8759945317493542e-01  1.0838318235095723e+00  1.6864809177318547e+00  4.9133420699927299e-01  5.4150589070925681e-01  0.0000000000000000e+00  0.0000000000000000e+00  1.0573543281789002e+00  1.5343733163649170e-01  0.0000000000000000e+00  4.2448231319703877e-01  1.2740656351122259e+00  9.3646072820762016e-01  2.0438485279096391e-01  7.8521508626525216e-01  1.1010133017464998e+00  1.0937174058953445e+00  7.8665759084722198e-01  9.9296200169769366e-01  1.2759440810389542e+00  4.2161260275201085e-01  1.8120632893952771e-01  4.3751711971937762e-01  1.4183542477037048e+00  2.0415515533266634e-01  1.4970969991814631e-01  3.8779021286417642e-01  5.0787239114966154e-01  1.2540832470124561e+00  1.6856409127134637e+00  0.0000000000000000e+00  9.1847337850501332e-01  5.5453961268780205e-01  0.0000000000000000e+00  4.2182985812364610e-01  5.0016901367563127e-01  4.2519196455174663e-01  9.1582417927346216e-01  7.1269138173431223e-01  6.7375896689229420e-01  1.0893373995864326e+00  1.2312783675009416e+00  1.5608905271957113e-01  3.8198110905338101e-01  7.2024326487940371e-01  1.0977168904931869e+00  0.0000000000000000e+00  1.3990507075699514e+00  6.1978171080631317e-01  6.3055361783609265e-01  1.1861446577268324e+00  1.2056768261358699e+00  1.4365497808704468e+00  1.0820239991889615e+00  1.3837484014590856e-01  4.3182723540201162e-01  1.7220781055034784e-01  1.7654637175400012e-01  3.7535314277605486e-01  1.3796751043938020e+00  0.0000000000000000e+00  5.8283406839941942e-01  7.0345565278173949e-01  1.5691557936186998e-01  6.9502166284873135e-01  0.0000000000000000e+00  0.0000000000000000e+00  0.0000000000000000e+00  0.0000000000000000e+00  0.0000000000000000e+00  0.0000000000000000e+00  0.0000000000000000e+00  0.0000000000000000e+00  0.0000000000000000e+00  0.0000000000000000e+00  0.0000000000000000e+00  0.0000000000000000e+00  0.0000000000000000e+00  0.0000000000000000e+00  0.0000000000000000e+00  0.0000000000000000e+00  0.0000000000000000e+00  0.0000000000000000e+00  0.0000000000000000e+00  0.0000000000000000e+00  2.3941722455931452e-01  1.4304875573921380e-01  1.0327079579515031e+00  1.1495535453194892e+00  1.0623562621797082e+00  7.6507732958358976e-01  8.0800537047301590e-01  5.4810301822495355e-01  6.1158357032591659e-01  1.2839907880257799e+00  1.0726180140316020e+00  9.1913732806278725e-01  1.6240423401259307e+00  1.6888576846160592e+00  1.6858117216495641e-01  1.2826066113362371e+00  1.2653865451942909e+00  1.4116321724934864e+00  3.8375558246180191e-01  1.3881081688499692e+00  9.9619288256400174e-01  1.6795884045354184e-01  3.3818252105767066e-01  3.9417625227577463e-01  1.2400026610378828e-01  4.3469683764568501e-01  1.3919615203608631e+00  8.3059289293916672e-01  1.5526481274378072e+00  1.4262830881521585e-01  9.8187610997847585e-01  1.3566759664127481e-01  1.5828657587919132e-01  4.0062492608155154e-01  4.1506268964800291e-01  1.5204776987955448e+00  1.2934971126881367e+00  6.4653933923008777e-01  9.9618309696726870e-01  7.3352864454119515e-01  7.1998664493875852e-01  6.5865592562944975e-01  9.3258754074845807e-01  8.3147814060521230e-01  1.6210150707953702e-01  1.5577381757085562e+00  7.7682527038476734e-01  1.5235531042926906e-01  2.1434219638681140e-01  1.4035072885402284e+00  7.4741779477885306e-01  5.9294699794498584e-01  6.7639238519040334e-01  3.7244004539717196e-01  4.0366284675655273e-01  3.5964450984204266e-01  3.5934944461556639e-01  4.4705665305146242e-01  3.5182624541607149e-01  1.6537769466855079e-01  5.5815648452674615e-01  1.1465949897800707e+00  1.3738788462507012e+00  9.2764108088240449e-01  3.5497395154873579e-01  5.6033407408421954e-01  1.6903973455009520e+00  4.7025772089387213e-01  6.3915704444395538e-01  5.2793676390569111e-01  3.7906838915616275e-01  1.0011656963899369e+00  9.0618014352375831e-01  1.3188086576411597e+00  8.9606347550721410e-01  1.3548954043840229e+00  1.5343457162800875e+00  1.2496897447554620e+00  1.6159180553586632e+00  7.2683385821829094e-01  3.2163138583406858e-01  9.5586967188464200e-01  6.8375505534469472e-01  8.0686096488895653e-01  1.5395947940834215e-01  3.2154136386908705e-01  1.3813947127021244e+00  1.1869198453744239e+00  5.4342844892104580e-01  8.5342508424065977e-01  1.1286692062403307e+00  6.7925123759264161e-01  1.3385324133934332e-01  1.3665071019487662e+00  1.1766996166522097e+00  1.0686272673765302e+00  1.3780807553445382e-01  6.6309031046317490e-01  1.5925537910140120e+00  5.7733110931927301e-01  8.3734723625699081e-01  6.4600893185977848e-01  5.5131069194429894e-01  1.4717674775804768e-01  1.1180475219498289e+00  1.3169470513923400e+00  1.5888384577002429e-01  1.5318885085017270e-01  1.9822124420717230e-01  1.5398475744009650e+00  1.5292320904498427e+00  9.5657722005316370e-01  1.3460953766031766e-01  1.3278502174066398e-01  3.4775286489264584e-01  7.7542204055778252e-01  1.3702671651207479e+00  1.2202751353371923e+00  1.2430011594019339e+00  1.1972451668927728e+00  1.3637902262079643e-01  1.2961769540021559e-01  1.6090151214552646e+00  7.2436056811977534e-01  5.7636476607575293e-01  3.7902603029781823e-01  1.0890183876674747e-01  3.2243857168653167e-01  7.6724051734672383e-01  1.4393564827747518e-01  1.1177658084346160e+00  8.2850421962034970e-01  9.6723666543596865e-01  1.0765144507798565e+00  4.2803842921974894e-01  4.4747506834208611e-01  5.2597246533073649e-01  3.8568480331750549e-01  4.6409492775730460e-01  1.3454221069373076e-01  3.1927853358098324e-01  1.1266682222089885e-01  3.7091219880469439e-01  3.9566100562834455e-01  1.0457525050443764e-01  9.3719799896989620e-01  1.4508469197176344e+00  5.3955706583177321e-01  9.7764311738606086e-02  1.1538674247976544e+00  7.9827383771645333e-01  6.7131457483534795e-01  1.2774834830014126e-01  6.5890660371497933e-01  1.5456329308724968e+00  2.6816635402168176e-01  1.2679266126137556e-01  1.0123248408659627e-01  7.6194282740609176e-01  3.3108552763103821e-01  1.3824133808089771e+00  1.4045899668604260e+00  8.7817273275717034e-01  3.3961667869377493e-01  3.8106815945882883e-01  1.4709895941096460e+00  7.3352131860410374e-01  7.4891653050432461e-01  8.4996710266519937e-01  9.5817305156012766e-01  4.4644504292112824e-01  7.5871736248693022e-01  1.1040919274539486e-01  1.4115789315771324e-01  1.1727834297640278e+00  1.3389039765892776e+00  1.4320587894609640e+00  1.6439271814774656e+00  1.6500973192016690e+00  1.1466325468170027e-01  1.3694502188200153e-01  3.4103712406393460e-01  1.0150395561938537e-01  3.4929987609235469e-01  1.1856818887549572e-01  1.2837785598640075e-01  8.1420762760912269e-01  1.6511197012799905e+00  1.5013238082988972e-01  1.4427120172665026e-01  8.3284887605508418e-01  6.1032979084908756e-01  8.2194694372775090e-01  1.2012064468781467e+00  1.0299654723737159e+00  8.6091007368044337e-01  2.0612799120228087e-01  1.6904627689734679e+00  7.2516979020453720e-01  3.5485635092904710e-01  1.4418085279476084e-01  1.3216972713705186e-01  1.0640864310463134e+00  1.5816822948182456e+00  1.3486134829949914e+00  3.1340386125420105e-01  1.2860782021207999e+00  4.9814182262555445e-01  4.5338341266675508e-01  6.6939225013763515e-01  4.6846981567649937e-01  4.4316249838168814e-01  7.6581268719916618e-01  9.7984061000515621e-01  1.0325325920666093e+00  8.4005413959328770e-02  1.3711148839310480e-01  1.1835240048038920e+00  8.5751503611506308e-01  1.4304137605017151e+00  1.0023831615841825e+00  3.3737032429745262e-01  6.4706576003091221e-01  4.9526398165623825e-01  2.7411046562174396e-01  8.7804773581393325e-02  3.0252470729615605e-01  1.1895325352554253e+00  4.2658472724831964e-01  1.4685026613792945e-01  1.3040108616823469e+00  1.4189376313974783e-01  4.3634950073082113e-01  2.8715325291993588e-01  1.1324705288074924e-01  5.9044948939143749e-01  7.1290758070685745e-01  1.1064083694286806e+00  2.8488940837854670e-01  2.6846748722548935e-01  1.3945494057530325e-01  2.9996918106533393e-01  3.8845655810183277e-01  2.7040689503494464e-01  5.5096169050153831e-01  1.5781243336914330e+00  3.6345529043108077e-01  1.3783517317407512e-01  1.3378942331046095e+00  1.4183522095543344e-01  1.5868631420543422e+00  1.1479021119375832e+00  1.2085005488363281e+00  1.2211836879699366e-01  8.0801989178319433e-01  3.6841477697463260e-01  1.0060072192570775e+00  9.7909813787448430e-01  1.2548516387573000e-01  1.1428523834962874e+00  8.9272125254144963e-01  1.5888574414588402e-01  6.6258218967674531e-01  1.6666203897464953e+00  1.3480837059906214e+00  1.1608629009679919e-01  1.5122756785068132e+00  1.0775294373926629e-01  6.6903180036095267e-01  1.1753672223873481e+00  1.6780644737411405e+00  2.6890099059402511e-01  6.0348500171200048e-01  1.2048065267293040e-01  4.6276303814637287e-01  4.3327184971631522e-01  2.5323304617698505e-01  7.9351911819268844e-02  2.8371607495580931e-01  2.9734470688634501e-01  1.1675048652237932e+00  1.4450099319823135e+00  4.2616259201708362e-01  5.6883526064725509e-01  6.7908715900988847e-01  1.0445700802409010e+00  6.2096961167847675e-01  5.0459607476618862e-01  2.7201834835926225e-01  1.2722491637612407e-01  1.6046202605939646e+00  2.1752264133896260e-01  1.4689114414276683e+00  9.4364498842519673e-01  1.6589720908090377e+00  9.7499443411986009e-01  7.6542279145172576e-01  8.1260613956382477e-01  5.5445590552670088e-01  1.3327949898041139e-01  9.7499745359475434e-02  2.8229841512122750e-01  1.0186609111081600e-01  6.6321373105369641e-01  8.8327796808687831e-01  1.0177079769184452e+00  9.2925833926191426e-01  7.9310407075299982e-01  8.7346324743112669e-01  0.0000000000000000e+00  2.3840885808396661e-01  2.4093067805925084e-01  2.9388748157039546e-01  7.6250215514218966e-01  1.3169818090902582e-01  1.0093853422783940e+00  2.9959162412698809e-01  3.0035378975243743e-01  4.5561986328965132e-01  1.0013067851962894e+00  4.6589962913560995e-01  5.3793752341603918e-01  9.5943745607261788e-01  1.0563713021682370e+00  2.5655282156107834e-01  2.4098654396762861e-01  1.5442046599792916e+00  1.5734422526209177e+00  1.4701524581470327e+00  1.5553921839374896e+00  9.9133763913488482e-01  8.0361288151435381e-02  1.5914898523098875e+00  1.6442917100858963e+00  1.6602576725882390e+00  1.6295034421880905e+00  4.0643896020112941e-01  9.9209618113801634e-01  1.1150896092440521e-01  5.9339308758240528e-01  1.3817241577753059e+00  2.5299506524544368e-01  2.6573370137300034e-01  8.1081788680459499e-01  8.6372883380997312e-01  8.7979102276776988e-01  3.0347347539650771e-01  6.2665152011890490e-01  1.0619275468231584e+00  1.2158463134178019e+00  1.0335704739909364e+00  9.6235873293732976e-01  5.6604447565976468e-01  8.1030452184959550e-02  7.8161868156116221e-01  3.9226732469921216e-01  2.3806938153473281e-01  3.5437069777367458e-01  1.1682710468810130e-01  1.3864036034176972e+00  1.4987631303688718e+00  0.0000000000000000e+00  1.0757323155424313e-01  1.2246957979492645e+00  9.6481548616744439e-01  4.0243414004830697e-01  1.5615823931118367e+00  6.5290479105147159e-01  1.4589548157187899e+00  5.6690819487102950e-01  4.7276182676567124e-01  4.8459787535082549e-01  1.5057138223971931e+00  8.2652583968581506e-01  1.4791195674938067e+00  8.6586503259558778e-01  5.3225105767453162e-01  5.1673147589229007e-01  4.5365205018196819e-01  1.4828374670064952e+00  2.9556782157161116e-01  7.7288588716315110e-01  5.6337773727740559e-01  1.6527291765924339e+00  5.9180212726573300e-01  1.6944433128901784e+00  1.4148630249634724e+00  7.1911439924765097e-01  6.6590142933456498e-01  1.4847866170252904e+00  8.1511365205929928e-02  7.7771474073263269e-01  1.5575539479518532e+00  1.6279405388185142e+00  4.6745096776329614e-01  1.3075609178928421e-01  1.1940284218029176e+00  2.7614425860729913e-01  1.2841214446221523e+00  2.6094460854636575e-01  6.6815688787325689e-01  7.4834335615869174e-01  3.0396696952665797e-01  2.9746256295110707e-01  1.5305053736037875e+00  2.7843109937139893e-01  2.5259427641708160e-01  1.0187085619048433e-01  9.0512315605031743e-02  1.5502344124980765e+00  0.0000000000000000e+00  1.2149583150039924e+00  6.5402642447556458e-01  1.5360772262767108e-01  1.3647827237584023e+00  </DataArray> 
</PointData> 
</Piece>
</UnstructuredGrid>
</VTKFile>