<?xml version="1.0"?>
<VTKFile type="UnstructuredGrid"  version="0.1"  >
<UnstructuredGrid>
<Piece  NumberOfPoints="1130" NumberOfCells="2134">
<Points>
<DataArray  type="Float64"  NumberOfComponents="3"  format="ascii">0.2924965119749844 0.5806454640576162 0  0.2931357425666441 0.6158095738938106 0  0.2722845889387188 0.5986007514407707 0  0.06245154218797691 0.7943760977968389 0  0.05544056292684415 0.8360220202702611 0  0.02724914271240671 0.7995232918838924 0  0.1335850646589621 0.7291917770211511 0  0.09257890860895016 0.7227107754768907 0  0.1207009360036598 0.6914172198262521 0  -0.1127572484929876 0.6217075882064447 0  -0.09059232536756107 0.6461457043336694 0  -0.08244382822329682 0.6193610233350183 0  -0.1373197942797624 0.4432044140746515 0  -0.1708498639144158 0.4258289329533242 0  -0.1683718478273803 0.4550768101836 0  -0.2097608088645187 0.2706029166526365 0  -0.2553472029916841 0.2715809926304027 0  -0.2391685209522224 0.2307322500123088 0  -0.2612214313441482 0.4860827085271667 0  -0.2999268493360679 0.4942668376827834 0  -0.2761784895078877 0.5087930656610014 0  -0.6336799748740927 0.5412138273049375 0  -0.6367242063828276 0.4943077948128051 0  -0.6623691907668592 0.5109580860210953 0  -0.8189328877697528 0.4225545775266913 0  -0.7732510673161435 0.420047019447516 0  -0.7972043328982701 0.4010362957246634 0  0.09400378958013947 0.2055695036858353 0  0.1290725919584871 0.2207698374846717 0  0.1219808629418566 0.1890773044854493 0  -0.4309945018733153 0.5062643786080123 0  -0.4382089257601645 0.5497266439837095 0  -0.4119159386366162 0.5339223899750409 0  -0.6227781113910986 0.4494196041151011 0  -0.6567942943576646 0.4640171858672734 0  -0.6481157979026415 0.4373082602627743 0  -0.4712405913227501 0.1677045787871355 0  -0.5101607540755746 0.1422745461243285 0  -0.4855314936343032 0.1275817475248843 0  0.2162525383925422 0.08615652924307352 0  0.2246786184519418 0.05722134459703598 0  0.1858331413839794 0.06712133478128747 0  -0.395297655555004 0.5597085933417444 0  -0.393845571583094 0.5930343773993745 0  -0.3703409314215836 0.5744126151601694 0  -0.1732844607114084 0.7831016787925337 0  -0.2042612800303741 0.7831655859422791 0  -0.1887231468431922 0.8072354228488953 0  -0.2401164734357646 0.7642938074902216 0  -0.2007050285273371 0.7523935126534872 0  -0.2268594363809904 0.7369868775014541 0  -0.1696450233376555 0.7253721306646218 0  -0.2085138894959716 0.7108694539094691 0  -0.4304447217574816 0.7500053130336214 0  -0.4315890123179937 0.7095731294438389 0  -0.4566159372858562 0.7305137127660739 0  0.2068741599965308 0.6805917788483005 0  0.2050805379439151 0.7234446339117643 0  0.2218709634298657 0.7011057471390761 0  0.2162993597616463 -0.05864296304509958 0  0.1750354584180112 -0.06241539112817548 0  0.193720732252597 -0.0392358669981461 0  -0.0230893327402 0.1929077709269967 0  0.004761282153553419 0.1841053551365959 0  -0.0294157900699326 0.1671086648702482 0  0.1565461142119031 0.6738661189577495 0  0.1462519036200293 0.703786842447927 0  0.1808354785713632 0.6837740099682186 0  0.003584375230144248 0.8973914042388084 0  0.004168520773651397 0.9265977742636927 0  -0.02260959360525044 0.8990907582775318 0  -0.5553672154460828 0.1314190645461342 0  -0.5235028484586995 0.1112039343107129 0  0.1603091172319885 0.1987437044449037 0  0.1587220491624921 0.2266983155339805 0  0.1814480564065501 0.2139661830238536 0  -0.1528819986293607 0.1263255869844637 0  -0.1492482924853433 0.1580573615581254 0  -0.121785890413324 0.1264951045251249 0  0.06840700246376145 0.1813414697793323 0  0.05901930246285114 0.213188864059535 0  -0.1752833856350064 0.2330884014058902 0  -0.1463494540489943 0.2498979671367919 0  -0.1597540380916604 0.2128762917837419 0  -0.2666080625010207 0.8166860089768937 0  -0.2708315979539392 0.7816567174515252 0  -0.3125666401907646 0.8078345074970555 0  -0.404120413395211 0.790596968601049 0  -0.3736980272227576 0.8094398659945521 0  -0.3782485212331815 0.783550436492126 0  -0.6302032721917927 0.1842725605598824 0  -0.6662816078013655 0.1849757094845715 0  -0.6278359119408464 0.1559995968664962 0  0.04697055465782802 0.07164191122244783 0  0.03568486653295815 0.02782254432188264 0  0.07147362760462897 0.03813006809902156 0  0.07629170137027992 0.001199503106725944 0  -0.08254551195616064 0.2442760807068146 0  -0.1256264531238477 0.2318577153827438 0  -0.1100359059370774 0.2587079641700211 0  -0.2057340115688616 0.336734776516796 0  -0.1583351405483 0.3413766438249081 0  -0.1746963906066072 0.2991947239182672 0  0.2069802702871247 0.2191319025157533 0  0.2277242868701167 0.1958518940723663 0  0.2327020808785168 0.2211695803373901 0  0.08377029897187802 0.3968728637950909 0  0.09430952409275566 0.3649796683197574 0  0.1096177565212272 0.4086602604886229 0  0.1993614565197579 0.6303751881642145 0  0.2183947193733605 0.602039791860232 0  0.2244999519515443 0.6267009039980487 0  0.2603645391142563 0.6285756014906578 0  0.09969329332901172 0.7636117992424346 0  0.1302396754667923 0.7597935550942527 0  0.3054091438189218 0.7866902927858057 0  0.3357122182608844 0.7742694490625159 0  0.3340932520791566 0.8018765332110196 0  -0.3419627731396465 0.7347283846920364 0  -0.3520950571293062 0.7809111428238701 0  -0.3692699615099612 0.7343393389683085 0  -0.5840098151137766 0.2990048577514015 0  -0.6080756186142645 0.3165493008588801 0  -0.5823578507234605 0.3265486810853542 0  -0.7051763504253612 0.250234969313039 0  -0.7068111699962591 0.2244295694172429 0  -0.7307168990284388 0.2554584211146595 0  -0.4836131513794496 0.6232288808042636 0  -0.4928484342320275 0.5960519446409566 0  -0.5117044153203884 0.6291244044274967 0  -0.4409287066533773 0.6702178123895151 0  -0.4738508613963038 0.6572424830600011 0  -0.4501566366006438 0.6453775654719015 0  -0.3429952027518596 0.5223588630033167 0  -0.3206329923626178 0.5503883121993246 0  -0.3685624877363587 0.5418514467512064 0  -0.3893699539648601 0.6237039937970631 0  -0.3422033714709892 0.6265868844716567 0  -0.3644188643635339 0.6027670761648919 0  -0.6575050454237221 0.2288298014079799 0  -0.6447641122924658 0.2516770218638512 0  -0.6798884378325298 0.2427667040117376 0  0.2579067442312717 0.4688983724209494 0  0.2888513267043814 0.4378317642069166 0  0.2515399520834085 0.4316117661101545 0  0.2722069355506832 0.8284688529037881 0  0.2642325312678823 0.8678131532115284 0  0.2341417510346148 0.8335977078735048 0  -0.609195381974423 0.1346104521165029 0  -0.581512774190834 0.1459772283855625 0  -0.606311706240823 0.1720374621998764 0  -0.1137242964947925 0.7342494510189826 0  -0.1085533329295061 0.7711569775053645 0  -0.08842803878944591 0.7495212997310273 0  -0.09035277733789798 0.4919220888235711 0  -0.1387502465387686 0.4915819350525998 0  -0.1147755671194965 0.5236308404416747 0  -0.08799438577573623 0.3012994251470535 0  -0.08054411621706016 0.273239330540436 0  -0.06068658392917529 0.3120024979569823 0  -2.220446049250313e-16 0 0  0.03833101908736652 -0.01236714587332863 0  0.03332211297248573 0.1779883120077971 0  0.0553878700818049 0.1568128372514456 0  0.03879512812050209 0.1013532927181565 0  0.01956592186948998 0.06947958240077355 0  -0.3110288607107251 0.08135098352660518 0  -0.344921080983376 0.08229130413897219 0  -0.328161300472874 0.05287969798319995 0  -0.08860505921103043 0.5920506521433744 0  -0.1159536089414161 0.590966322597226 0  -0.1021964897951705 0.6788144063269812 0  -0.136261090104428 0.700646753224388 0  -0.1228430025016362 0.6531026549154566 0  0.1415956346790651 0.6023153900601184 0  0.1455023681906896 0.561880690090387 0  0.173814985803951 0.5850222891851874 0  -0.7039359164953137 0.1054244296900993 0  -0.7241549932545398 0.08547378493790607 0  -0.7240317325936491 0.1290401816176439 0  -0.7146836516968359 0.3927695373773623 0  -0.7171931948150422 0.4336007787289713 0  -0.7460250674529035 0.4301448157942048 0  -0.8336681057691238 0.345316635927459 0  -0.8219806880639507 0.3831114868492926 0  -0.8020922577552831 0.3633132148152522 0  -0.5618738577248394 0.6403651441164777 0  -0.5473882199946626 0.6849348980099506 0  -0.538289355892541 0.6573388026093229 0  -0.4824797505496254 0.3838810792864338 0  -0.5230731684421793 0.3642691414098798 0  -0.5137211790366101 0.3967288418064787 0  -0.09386743165719327 0.8868230745198202 0  -0.1334231263863611 0.8942731301668522 0  -0.1092845443900445 0.9137012029455377 0  -0.04523581318749946 0.8244439404340452 0  -0.0769396102945519 0.7908921470434424 0  -0.09343945562699482 0.8132315912754917 0  0.0455101775939576 -0.1178143478783519 0  0.07525030372245567 -0.08800061275601394 0  0.04261815316074052 -0.08518924674757319 0  0.1424349288786705 -0.03683910833544325 0  0.1406428911848698 -0.004598908502305238 0  0.1639118323293636 -0.01947543299796284 0  0.1859045193885197 -0.1024004418516471 0  0.19058579448583 -0.1427680390589207 0  0.216883382856332 -0.1337619999027692 0  -0.2373028979847076 0.5473261424768866 0  -0.1932653732436898 0.5665479687088435 0  -0.2062682446319116 0.5362814988625322 0  -0.2126522817199431 0.3845511360064228 0  -0.1866730065200072 0.3639012639806355 0  -0.4174180203574351 0.2086894809925613 0  -0.4048848604657676 0.1820574049833631 0  -0.4464806129667586 0.1834083348043779 0  -0.4568841982408385 0.1262359142486632 0  -0.4313452580001016 0.1582968730533858 0  0.07231769945658416 0.5196157514494713 0  0.03312463406788048 0.5008840041940618 0  0.06513249352082014 0.4842812410161731 0  -0.0004027730160685861 0.7771386075583826 0  -0.03905074592193825 0.7819032022368267 0  -0.02332525375120641 0.8059095547793576 0  -0.2649860329145938 0.1824261056420857 0  -0.3041191825682435 0.1773695031720618 0  -0.2803378790137869 0.1428742985583878 0  -0.2687508696165652 0.1158982906339185 0  -0.2514827659916298 0.1482915158136655 0  -0.322899042696953 0.1999682459755028 0  -0.3484887776281561 0.1655499381999704 0  -0.3515501295523116 0.2070651371825604 0  -0.3903979979922381 0.1564355708354559 0  -0.9163492829346521 0.2448659195690242 0  -0.9192152205576599 0.2847796305242293 0  
[...]
<PointData  Scalars="f_2282-2"> 
<DataArray  type="Float64"  Name="f_2282-2"  format="ascii">2.9184793439257600e-01  2.6419053155397199e-01  2.8526174985438496e-01  1.6412142549092384e-01  1.2881510669663551e-01  1.6105236455226851e-01  2.1214504563311831e-01  2.2342861528452301e-01  2.4683144047106015e-01  3.0780343397668125e-01  2.8978900654338535e-01  3.1375369980318629e-01  4.4605805744842292e-01  4.5001867757191277e-01  4.2937165828521906e-01  5.3084115451494407e-01  5.1139965326519754e-01  5.3687500651874875e-01  3.7566230737110445e-01  3.5382693754301259e-01  3.5309866447496219e-01  1.3266672577723965e-01  1.5620971375733506e-01  1.2993009806882774e-01  5.9697588096520392e-02  9.3336890377983192e-02  8.3540631670959556e-02  5.9253830051758838e-01  5.7885931227096543e-01  5.9296898731351033e-01  2.7907898320320657e-01  2.4573905251536401e-01  2.7075461603617085e-01  1.8873208534436320e-01  1.5762888842336412e-01  1.7712488380892116e-01  4.1774241609198159e-01  3.9426877957173084e-01  4.1618715907573417e-01  5.8961627893860669e-01  5.9019003366181211e-01  6.0399250584581232e-01  2.6135253321409063e-01  2.3786612179590605e-01  2.6266810413119313e-01  1.5931999487225609e-01  1.5327927099475391e-01  1.3637353489677187e-01  1.6044858337293166e-01  1.7941715752719603e-01  1.8637808019536731e-01  2.0914324814056201e-01  2.1269715762825442e-01  1.0622911837805515e-01  1.3504211863669321e-01  1.0889005159885644e-01  2.3838493660004267e-01  2.0275689810536929e-01  2.1756834791985560e-01  5.9336638235199213e-01  6.0910565982088638e-01  6.0402041049542199e-01  6.0551224682071914e-01  6.0962198230155218e-01  6.1410961828890798e-01  2.5549096155227241e-01  2.3180628775714707e-01  2.4196284748153196e-01  7.9235838153227031e-02  5.5696090343361856e-02  7.7229924832725519e-02  3.5992688919732624e-01  3.8944947757092518e-01  5.7922831429470778e-01  5.6791042512377055e-01  5.6594073931346855e-01  6.0412922742189690e-01  5.9634681212921137e-01  6.1221810311352554e-01  6.0601796282517162e-01  5.9465299820019812e-01  5.6038418443682558e-01  5.6115707121988334e-01  5.7362027522718229e-01  1.1102040779001404e-01  1.3787965574283134e-01  1.0502575808672027e-01  8.7089771076288153e-02  8.4144145989605387e-02  1.0159470559822315e-01  2.8653485042762294e-01  2.5558399270752014e-01  2.9474126244686094e-01  6.3599410696985781e-01  6.4151380334687236e-01  6.3654542451701257e-01  6.3772433778298176e-01  5.7766945451949292e-01  5.7523110693015200e-01  5.6569489438874654e-01  4.9651193781594838e-01  5.0900825406657924e-01  5.2831053800368233e-01  5.5482280417841590e-01  5.5529418280070542e-01  5.4344110992036476e-01  4.8858753256932969e-01  5.0858009379880964e-01  4.7613345463004830e-01  2.8224520820960347e-01  3.0032893528341137e-01  2.7829308279995235e-01  2.6550138244315297e-01  1.8712192207205669e-01  1.8660122446044999e-01  1.2364133937994147e-01  1.2385457458096961e-01  1.0303470746897923e-01  1.5242881632759597e-01  1.1302358021297070e-01  1.4233147755296832e-01  2.8672481101091013e-01  2.6098928178350123e-01  2.7653048844800660e-01  2.0628716041226788e-01  2.1202820600986497e-01  1.8351507539843784e-01  1.7087669800950162e-01  1.8406467977488461e-01  1.5169969408468509e-01  1.5936714750168346e-01  1.5239011267881108e-01  1.7261417247862343e-01  3.1365686832634315e-01  3.0348385566146530e-01  2.8745646575184464e-01  2.1760107361916586e-01  2.3614473029582425e-01  2.4457058455515499e-01  2.5196619654659069e-01  2.5509199242313996e-01  2.2876127414960315e-01  3.8954969390317767e-01  3.9830632546490213e-01  4.1832516447946166e-01  1.0009234776957790e-01  7.1257735938537417e-02  1.0525159037982817e-01  3.1487550190241720e-01  3.3565179930017436e-01  3.0870401359171429e-01  2.1085810924701051e-01  1.7964356750183746e-01  2.0029531599883374e-01  4.1779203157716216e-01  4.0945894391150633e-01  3.8880594423379800e-01  5.4773619434484300e-01  5.6404843150469841e-01  5.4525748002902075e-01  6.4342537781154530e-01  6.4169317818113092e-01  6.1039811889347628e-01  6.1529962530713411e-01  6.3124208761429368e-01  6.3804346223457675e-01  5.4343541336355683e-01  5.2290478069705371e-01  5.3664905465027413e-01  3.3631145335924728e-01  3.3304386780545064e-01  2.6025387890544205e-01  2.3628151742017942e-01  2.7930950693422246e-01  3.1904604089722183e-01  3.5182040683568733e-01  3.2626293016541408e-01  2.3826683632944284e-01  2.2254794978436826e-01  2.1745001506618777e-01  1.4773323540589828e-01  1.2860355336990681e-01  1.0924445062139551e-01  7.5289086242281963e-02  7.1118036130224341e-02  9.3220255107265448e-02  1.1702187240022638e-01  9.6269687320836517e-02  1.1892553653099930e-01  3.2096600339628945e-01  3.0310053281159000e-01  2.9274100711265799e-01  8.4074471683348861e-02  7.3613582503234923e-02  6.0502065473293662e-02  1.3951594498135611e-01  1.6586816691997039e-01  1.4529351606492036e-01  6.2738675701731250e-01  6.2974482221621353e-01  6.3415699820731120e-01  6.2157140504253772e-01  6.2316835901568102e-01  6.1583708570003237e-01  5.9846397314432309e-01  5.8752711032253058e-01  5.7921576732967628e-01  3.3793962368573266e-01  3.3648509233699053e-01  3.5673866601134968e-01  4.6440202393367025e-01  4.8628151913327100e-01  4.4395545910744200e-01  4.6099451461697571e-01  4.3144157563768559e-01  4.3844085300248858e-01  4.4948817618048287e-01  3.9817290638408581e-01  4.1637888481590329e-01  4.2686851931604630e-01  1.8125984014134067e-01  1.7585311528291292e-01  1.5566050743327797e-01  5.4329114607337814e-01  5.2473216924746979e-01  5.4715619112940206e-01  5.5983512750705422e-01  5.6016738390609244e-01  5.0645737512343358e-01  5.0238638737596686e-01  4.8723054566277890e-01  4.7809663266130931e-01  3.8155632058604484e-02  2.7332368678027651e-02  4.7543045262941182e-02  3.6279605679113930e-01  3.4705416117572835e-01  3.2785016067235356e-01  2.7992628404841285e-01  2.5449871841387700e-01  4.1805602937578255e-02  4.9172797480154483e-02  6.6826291785078318e-02  2.3846470601199515e-01  2.7142158921197057e-01  2.5360192382166052e-01  1.7679254396235777e-01  2.0379783183255182e-01  1.7061651149098692e-01  8.1406577502812494e-02  5.2734394524469520e-02  5.7499732612214575e-02  5.9415966196728197e-02  8.3271575913120011e-02  5.9585514114665353e-02  3.9306455167738069e-01  3.8901031391174495e-01  4.1657037060376412e-01  5.1912713810168587e-01  3.4417867096092525e-01  3.3740602697897515e-01  3.1921246804687869e-01  4.0098091200948227e-01  4.3765914162858682e-01  3.9992225611608884e-01  1.2254811005247546e-01  1.1139435559115612e-01  1.8731405359515324e-01  2.1167334486149686e-01  1.0245619350802569e-01  8.4454479349772224e-02  1.0653744117736877e-01  4.3049054077979759e-01  4.4416938941989825e-01  4.5280606508374499e-01  2.6007324230374440e-01  2.6810324634329746e-01  2.4470978043592595e-01  6.1973850961808208e-01  6.3244072026582199e-01  6.2676768255939030e-01  1.2011705796377772e-01  1.3446307120817427e-01  1.4173500851672105e-01  0.0000000000000000e+00  0.0000000000000000e+00  5.3158591929108001e-01  5.4843050057855203e-01  5.4314987677243232e-01  6.2022266355273226e-01  5.5791651705411405e-01  5.4363705669911366e-01  5.6665506937077337e-01  4.7707376635059684e-01  4.7646352209816017e-01  4.9517596142540626e-01  2.8609039948886783e-01  3.0600341631926875e-01  2.6958871610046392e-01  3.1097213401500023e-01  2.2700543504465112e-01  2.0049500063916567e-01  2.1577767210094698e-01  2.7870523456835822e-01  2.4236601905889119e-01  2.6508484802191445e-01  3.6204699510757615e-01  3.4091113368224396e-01  3.6412034435646240e-01  0.0000000000000000e+00  1.6886225274186581e-02  1.8666190934561604e-02  4.0451859639685041e-02  2.5894827741951568e-02  4.9807045222232366e-02  2.7416914528805592e-01  2.5018797692944550e-01  2.3245786154702719e-01  1.3728005201942436e-01  1.1822778454639282e-01  1.6868338152439469e-01  1.6255180774157910e-01  5.6202263983746004e-01  5.5075366355819833e-01  5.1451801919583739e-01  4.9592136390001362e-01  5.0400659585586027e-01  5.1234909900225589e-01  3.2978538654069456e-01  3.0398876235510269e-01  3.1710274144413947e-01  7.7794267633117239e-02  7.8402432088926527e-02  5.2796403479726126e-02  8.1447415480659563e-02  6.3776300469411729e-01  6.3881066275566245e-01  6.4188888494464125e-01  6.4191276250311025e-01  2.4330935264125969e-01  2.6440493863130182e-01  2.5515932235946692e-01  4.4903175774503357e-01  4.2920541900824905e-01  4.6245187523205317e-01  5.4172011629294814e-01  5.6176841547921419e-01  4.8364285832209941e-01  4.8289906650706793e-01  5.0695057176289626e-01  1.9548432970971574e-01  1.1938741278842654e-01  1.4747710276029583e-01  1.6830194522953501e-01  1.6840948822705720e-01  1.0860541415050695e-01  3.3178808158067347e-01  3.3744794556870039e-01  3.0999974622503623e-01  2.0248270451684439e-01  2.2791645952104453e-01  2.0959655770793290e-01  1.9692237801459586e-01  1.9929291648245431e-01  5.5413590101209276e-01  6.1593903896172064e-01  6.1757193724896742e-01  6.2298556225755597e-01  2.1255574190437584e-01  2.3783415474430220e-01  2.4899779818391632e-01  1.5838770394285601e-01  1.9535797138637012e-01  1.7643333095886635e-01  3.2282458023334924e-02  1.7502854503553138e-02  6.2019270915480529e-01  6.3093104757724694e-01  6.3190064082204156e-01  5.8599560160780739e-01  6.0500126057898695e-01  5.3098586453297858e-01  5.1739255728295486e-01  5.6179929917400429e-01  5.8042261596890643e-01  5.6781175683789831e-01  5.7267568176035266e-01  5.8076379137441958e-01  5.9346791172578883e-01  2.5986555519945237e-01  2.6003898296177874e-01  2.3081536934217906e-01  6.2708163435589381e-01  6.2400277400534765e-01  6.3194030944715740e-01  2.8501532956072489e-01  2.8692142144961652e-01  2.6082570054279064e-01  5.4610807505823644e-01  5.3790304940866018e-01  3.3512168311826962e-01  3.0759154024186114e-01  3.3088359532768691e-01  3.5772763399708885e-01  4.1381687239868070e-01  4.2433860997198997e-01  4.0834576636739217e-01  4.3096804010462308e-01  4.2270856142784130e-01  4.0654314942487535e-01  3.9055759736652773e-01  4.1342116618595204e-01  4.4224104380474716e-01  4.1358898403059396e-01  3.6676061113333558e-01  3.6551094993001199e-01  4.3644328987118053e-01  4.6867968655602232e-01  3.2973553495867741e-01  3.2561433358172609e-01  3.7249453113796333e-01  3.9387687186653331e-01  1.4234386344242941e-01  1.7319882076447046e-01  1.6307170355760658e-01  2.5695927360157134e-01  7.2267156093371296e-02  7.7366454918993174e-02  5.6046902357007884e-02  6.4225363830215848e-02  9.3199236882160932e-02  7.2062600603495591e-02  5.3343799988118201e-01  1.4785444450545018e-01  2.8259884115826139e-01  6.2419960500645266e-01  6.1433743756524650e-01  6.3388596674695752e-01  3.3036062356529838e-01  3.0590580341566065e-01  3.3481498804924603e-01  3.5990995661569902e-01  5.2291165222371469e-02  6.4707058507491824e-02  8.1615083780323200e-02  5.3368660283162306e-01  5.2368493597268850e-01  4.6124120245850259e-01  4.6756023174216171e-01  3.7667746164585036e-01  2.2236642721977282e-01  2.0857036654040162e-01  2.4541332627464529e-01  3.0626679137848084e-02  1.4926026646305851e-02  4.5236335893383647e-02  1.3488663206024076e-01  0.0000000000000000e+00  2.0691339305671928e-02  0.0000000000000000e+00  1.1195041310404955e-01  9.2373527219971482e-02  8.9677355488951657e-02  4.7911698353433702e-01  4.6498679953367716e-01  5.0135411324572177e-01  4.7750993301858263e-01  5.0504698124903291e-01  3.4044618938023258e-01  3.7107834714740112e-01  3.5862942736288572e-01  3.8779041156826582e-01  4.8276304751313370e-01  5.0503681546659684e-01  4.8600603106228812e-01  4.6932887293652992e-01  4.5259513171715987e-01  4.7247906318380645e-01  1.6297897340603856e-01  1.8488027322757181e-01  1.6269527828926639e-01  5.7811760718522016e-02  4.8907432700383315e-02  3.5145037064591732e-02  0.0000000000000000e+00  0.0000000000000000e+00  3.9782148295366665e-02  2.2329943925723690e-02  9.8597247551212477e-02  1.0095352737447523e-01  5.6623413295304875e-02  5.2894153668680270e-02  2.5957347453484166e-02  0.0000000000000000e+00  0.0000000000000000e+00  2.6400026941099586e-01  2.6523842306435852e-01  2.4191594857669463e-01  6.1954909909292855e-01  6.2743398278530793e-01  6.0566318140947295e-01  6.1437855176015954e-01  6.0498279210455064e-01  3.8331831141307138e-01  4.0288693901649808e-01  4.0760796278840949e-01  4.6234009597329051e-01  4.7730504893811776e-01  2.2412859975054888e-01  2.4559729199726277e-01  1.6023500371162633e-01  1.5625446472235632e-01  1.3173908556262337e-01  3.2324024983800942e-01  3.0216277751246284e-01  3.5631214814378998e-01  4.8628681836435828e-01  5.0169770630363797e-01  4.7231158128245104e-01  2.8275598727772450e-01  2.4089396550779793e-01  2.0412888791426587e-01  2.3450217313149155e-01  2.6491519886071069e-01  2.8831875052086536e-01  2.6659525024637559e-01  1.4188376955012053e-01  1.1705128137984079e-01  1.0204420512390373e-01  6.4052402689345289e-01  6.4195011568221716e-01  6.3847561942689401e-01  6.3769862514726627e-01  6.3996807054506577e-01  1.0527047379442306e-01  8.0016122052141744e-02  6.3896947601124920e-01  6.3579752136790080e-01  6.1810452693502160e-01  6.1089162208801406e-01  6.0894260589033056e-01  1.1124050385163260e-01  1.4183297220307417e-01  1.8607895301736899e-01  1.5922767589841008e-01  1.8742041855674876e-01  3.2609581061216003e-02  3.0214011321653193e-02  1.4775317268729167e-02  4.5440346523749198e-01  4.2658990336018532e-01  4.0969867308700730e-01  4.0433729596328033e-01  1.0203830651573773e-01  8.5071853425056077e-02  2.7620072326564330e-02  5.7713070409468825e-02  3.4381313438846095e-01  3.0703088344691976e-01  2.7835947564974983e-01  6.9400188975448557e-02  9.6706996846564863e-02  9.4807124950388608e-02  7.6423991602235397e-02  6.4607408229252983e-02  1.1424980770406043e-01  1.3813116857770227e-01  1.5319070208845706e-01  4.1820403225527880e-02  2.5553948972937942e-02  2.1833039373189683e-02  5.5326095815827647e-02  6.3146831434744477e-01  7.7001569970132633e-02  5.6243719015248127e-02  5.4549562665792320e-02  1.0340445950199421e-01  9.5000531137826680e-02  5.4582065229015919e-01  4.1344391408523068e-01  3.9065062749803592e-01  3.9222283622671100e-01  3.6051085703208829e-01  4.0206043212588249e-01  4.3464731792503408e-01  4.5955665756125719e-01  3.6424214915647110e-02  3.2938957019934545e-02  5.5216171395756275e-01  5.7006857355370455e-01  5.5489473371126063e-01  3.5898282163104750e-01  4.1819123324438290e-01  3.9433240630602151e-01  1.8741253444648279e-01  6.1281728647791356e-01  4.9481807833638553e-01  5.2285174930726508e-01  5.7916605238631969e-01  5.9975233841804587e-01  5.9006339188287127e-01  5.8073821785301183e-01  2.3546594068562052e-01  1.9920385483173858e-01  2.1571759315167469e-01  2.3194233306897971e-01  3.3556806284287699e-01  3.1108658062151739e-01  3.7576905994557536e-01  3.9193079458841418e-01  2.3493934602439154e-01  3.1415557323778520e-01  4.0040821834116258e-01  4.2174990622684932e-01  3.7186012710108618e-01  3.6381006044945347e-01  5.9478417785688464e-01  6.0448217056463982e-01  6.0124086613832284e-01  6.0365600124584740e-01  1.3909674493289165e-01  1.8983746748758698e-01  1.9678713057747166e-01  1.6463795811315973e-01  2.2202695656556623e-02  1.5682009371829742e-01  1.2863823516610554e-01  1.0862300660223932e-01  1.2131547512864101e-01  6.1514764913732389e-01  3.9291305110420935e-02  5.2206628757513043e-02  1.8776663039547593e-02  4.2100553157612169e-01  3.9303220348181112e-01  4.2016947899143975e-01  4.3431498532873875e-01  4.4230419290082296e-01  6.4139062408697456e-01  6.3518356883973659e-01  5.9103616052118979e-01  5.8311249590318681e-01  5.9552982629173545e-01  6.0556995900764821e-01  5.8984071715940256e-01  5.9288819776744828e-01  3.7760889843698353e-01  3.8021383249920127e-01  3.3248221957929619e-01  2.1765365408406509e-01  2.0699655286219118e-01  2.2627017049591369e-01  3.5552178042145288e-01  3.4683978242173708e-01  3.7129380251448640e-01  3.6779458550509586e-01  3.4378100514157950e-01  6.0352248698083799e-01  5.5153869363222385e-01  5.7231625432393018e-01  5.5901228945460368e-01  5.5083497469432374e-01  1.0095853118094987e-01  7.8113858458633473e-02  1.0509135877530569e-01  4.5919451229754793e-01  4.3964843252128494e-01  4.3895533267244380e-01  5.3499604091997377e-01  4.8593020371932355e-01  6.3542475500098716e-01  6.0351053613276728e-01  6.0632074461898000e-01  4.6297481251827788e-01  4.4165540888949706e-01  4.1803459124331027e-01  2.0541799585423851e-01  1.5925277129108881e-01  1.0885783688893262e-01  1.3310824104788987e-01  1.2608541977558457e-01  1.1234600418550204e-01  0.0000000000000000e+00  1.7706751989054977e-02  4.0241344102087129e-02  4.4105914655682865e-01  4.1730029858487383e-01  4.2935972259282179e-01  1.2531596336169840e-01  1.8186772539133464e-01  2.1887128281578741e-01  5.0342510078015357e-01  4.7656705899565738e-01  4.9133276235865236e-01  4.7945093188912008e-01  4.5732483416765768e-01  4.5972516073101000e-01  4.3417328684798656e-01  3.6355386033052980e-02  5.0176587787773105e-02  9.7541040569950874e-02  1.7800201454295839e-01  1.8850506815224446e-01  2.0852486597813080e-01  2.0755285886065433e-01  5.8924151818791692e-01  5.9670874401032847e-01  5.8416805903967839e-01  5.2499227580381036e-01  5.6993725742220239e-02  6.2389272439864495e-02  6.3639854585631733e-02  8.6458088100034039e-02  3.4091429835988246e-01  8.1516209190865579e-02  6.4138410353795805e-02  5.8664585485279606e-02  8.1399420875965953e-02  0.0000000000000000e+00  1.6076883138242362e-02  1.9630073289435931e-02  3.8184249347899202e-01  4.3637135385188869e-01  4.5921836287265078e-01  2.0970562439727394e-01  2.5400775161168532e-01  2.2052245710017818e-01  2.8520169939726975e-01  2.6070922032251875e-01  5.1042112627205105e-01  5.2377527493085629e-01  1.9875453917466609e-01  2.6024503273185723e-01  1.5838919749215929e-01  1.8360234096812358e-01  2.5639696988141653e-01  2.6345848668639082e-01  1.3118477149977684e-01  3.5851441964576229e-02  3.1062637850869657e-02  6.2019874020706212e-01  6.3530719291770077e-01  2.9758624830003205e-01  3.2008796233653658e-01  2.9811334404858880e-01  2.7315972222203466e-01  2.5571989706198306e-01  3.0777668986182741e-02  3.4548489326324934e-02  2.5145011226819110e-02  6.7336651634726880e-02  6.2483353336941092e-02  1.2961854661243746e-01  1.5251966260017119e-01  6.1393378857061065e-01  6.2616655909327246e-01  6.0993819286978690e-01  6.2816256615036115e-01  6.1854428226085845e-01  6.2698331389897932e-01  6.2385575820107442e-01  2.7239341913571580e-01  3.0199684142586503e-01  1.2625492188820167e-01  1.0580806272351642e-01  1.1915207748919661e-01  3.8853135920761471e-02  1.7494091049147377e-02  2.1140008006679409e-02  3.7127977559120789e-01  3.9202389810735794e-01  4.4038865844390795e-01  5.2184214738841173e-01  5.2252682841374087e-01  5.0302813187098405e-01  1.9690027184834427e-01  2.0647608058465397e-01  2.2010660604318680e-01  6.7053752860542021e-02  0.0000000000000000e+00  0.0000000000000000e+00  2.7607519470883257e-02  2.2042235582696638e-02  4.5560147461278344e-01  6.2058606067222699e-01  1.4967978151367944e-01  1.7736720736325601e-01  1.4779087192269280e-01  5.7542875207960975e-01  1.3405803954397510e-01  6.4235223467688798e-02  5.1427182509648550e-01  5.3359860170668583e-01  5.2945705138654831e-01  5.5175682962080863e-01  5.5160936773844627e-01  5.3562323078515994e-01  4.6901925903349218e-01  3.7115238557536406e-01  5.8123064329495697e-02  8.8535119394362330e-02  1.7858243344738420e-01  3.2964853303592417e-01  3.3391109419301335e-01  4.0502468012610549e-01  5.9234471591099047e-01  5.8169173494593474e-01  4.8081318737095730e-01  5.1258547803073340e-01  3.1042523882395090e-01  2.8373213584280976e-01  3.0198368882330950e-01  1.4781471974676438e-01  1.0053613727018482e-01  3.7110794627009613e-02  3.7049353938133273e-02  1.5716999587750562e-02  4.0747842459138837e-02  1.8547225578960238e-02  5.6817597779966644e-01  5.5900470978338057e-01  6.2687945407088930e-01  6.2590402092569930e-01  6.1335022856791210e-01  0.0000000000000000e+00  0.0000000000000000e+00  5.4489735914777779e-02  3.0349756489896792e-02  2.7542694453036382e-01  2.273485488