<?xml version="1.0"?>
<VTKFile type="UnstructuredGrid"  version="0.1"  >
<UnstructuredGrid>
<Piece  NumberOfPoints="785" NumberOfCells="1485">
<Points>
<DataArray  type="Float64"  NumberOfComponents="3"  format="ascii">1 0 0  0.9510565162951535 0.3090169943749474 0  0.8090169943749475 0.5877852522924731 0  0.5877852522924731 0.8090169943749475 0  0.3090169943749475 0.9510565162951535 0  6.123233995736766e-17 1 0  -0.3090169943749473 0.9510565162951536 0  -0.587785252292473 0.8090169943749475 0  -0.8090169943749473 0.5877852522924732 0  -0.9510565162951535 0.3090169943749475 0  -1 1.224646799147353e-16 0  -0.9510565162951538 -0.3090169943749469 0  -0.8090169943749476 -0.587785252292473 0  -0.5877852522924732 -0.8090169943749473 0  -0.3090169943749476 -0.9510565162951535 0  -1.83697019872103e-16 -1 0  0.3090169943749472 -0.9510565162951536 0  0.5877852522924729 -0.8090169943749476 0  0.8090169943749473 -0.5877852522924734 0  0.9510565162951535 -0.3090169943749476 0  0 -1.110223024625157e-16 0  0.4510565162951535 0.2298247742126793 0  -0.07919222016226819 0.5 0  0.4217401972019558 -0.2701752257873207 0  -0.4664690173352599 0.1823899734948475 0  -0.3579604780797941 -0.3579604780797938 0  0.08947756573959761 -0.564939116217821 0  0.2920115546147195 0.5731049448157398 0  -0.6379736825905938 -0.1331202236553083 0  -0.5008003933374412 0.5008003933374412 0  0.6995191145456661 -0.1107929434536306 0  0.142039521920206 0.2787682579175257 0  -0.3334887362273707 -0.6545084971874736 0  0.1245525093718384 -0.2698283057066694 0  0.394121195831843 -0.5736904951771631 0  -0.3634291792402099 -0.07798855321373677 0  -0.7398752304198022 0.1266395525571908 0  0.5513406906673669 0.5513406906673668 0  0.06772072383772594 0.7330026833223602 0  -0.1798257626464556 0.2277898049615374 0  -0.1329363554971779 -0.2250241225826161 0  0.2899847546250717 -0.01159061002844763 0  0.7178334616361693 0.1634954202353548 0  -0.185558029016192 0.7298829572732783 0  -0.5575821515891235 -0.5237174003589158 0  0.6636796672438613 -0.3700844779107332 0  -0.1473869834727682 -0.4898672660924318 0  -0.1245776731282009 -0.7865524724078699 0  -0.7047576755565585 0.3676611205918164 0  -0.7200632558821398 -0.3535872110403818 0  0.1059826075223748 -0.795065377569524 0  0.8800367553350505 0.4484011233337103 0  0.623199147317663 0.3525294878401746 0  0.5129820594521588 0.01406716385861899 0  -0.2901427146123197 0.4232796753639339 0  0.6984011233337102 -0.6984011233337104 0  -0.4012649964410931 0.6952739930058706 0  0.2729833322899929 -0.4096530452196732 0  0.3012581447838918 -0.7510272980442365 0  -0.8137027520495476 -0.05218979815199046 0  0.4331943037813432 0.6994662051624437 0  0.4096672220709169 0.4191323268585566 0  0.1043321860738427 0.5471012642541169 0  -0.1964715282981352 0.02977353470457396 0  0.2552131475805349 0.7680603542530016 0  -0.5388598112947428 -0.3431837635368604 0  -0.5797382542202413 0.03959248166636803 0  0.009584998068538048 -0.4058038127633932 0  0.1545084971874738 0.9755282581475768 0  0.4973115362790197 -0.4300662553549759 0  0.5658689724588636 -0.5882049478260758 0  0.2422046756816651 0.4131071900577793 0  0.7836508779194769 0.3146499317110243 0  -0.1545084971874736 0.9755282581475768 0  -0.06024135378981482 0.8388279256599832 0  0.8224179041086225 0.01875666381115074 0  0.9755282581475768 -0.1545084971874738 0  0.1492029128681321 0.09954782333993309 0  -0.007766320725004716 0.1830271833708655 0  0.3053451802085407 0.1526019885243211 0  -0.008583573074307321 0.3493769050054867 0  -0.2248586819964352 0.5721497532038938 0  -0.6984011233337102 0.6984011233337104 0  -0.6608599644184795 0.5232054702963955 0  -0.4379831721234783 0.3465173839916844 0  0.78947533516742 -0.2553493950128032 0  0.5377785018220788 -0.1506580215248616 0  -0.4377018126721021 -0.2194786956927773 0  0.9755282581475768 0.1545084971874737 0  -0.8135818870758709 -0.2173971224509217 0  -0.8800367553350507 -0.44840112333371 0  -0.8800367553350504 0.4484011233337104 0  0.8800367553350504 -0.4484011233337105 0  -0.6984011233337104 -0.6984011233337102 0  0.6984011233337103 0.6984011233337103 0  -0.4484011233337102 0.8800367553350505 0  -0.4484011233337104 -0.8800367553350504 0  0.1545084971874735 -0.9755282581475768 0  -0.1545084971874739 -0.9755282581475768 0  -0.9755282581475768 0.1545084971874738 0  0.4484011233337103 0.8800367553350505 0  0.4484011233337101 -0.8800367553350505 0  -0.9755282581475768 -0.1545084971874734 0  -0.3127199235709721 0.1392534573254163 0  -0.005479567850930206 -0.6874046165737091 0  0.2732479409242113 -0.1829771259830817 0  0.1418810278893715 -0.0836379635813527 0  0.004538992852202391 -0.15446060603175 0  -0.2853499925602263 -0.2239500765044786 0  0.4567744071463516 -0.7194815091863737 0  0.2407354298475123 -0.6063519260829316 0  -0.6189916801537911 0.2320956117698647 0  0.6914879155064673 0.4896037129438954 0  -0.1790968367221579 -0.6415245347002975 0  -0.3212528653011592 -0.8027825067413136 0  -0.4953997049317194 -0.6745488295647377 0  -0.3019794247314472 -0.5026245467723092 0  -0.5503379494258648 0.6488635672452867 0  -0.1526806950398258 0.3736888875971234 0  -0.3677221816356187 0.5553972409288912 0  0.4114570176646632 -0.08544454673099088 0  -0.3115221870742588 0.2814617094129646 0  -0.5055096840583726 -0.08161026592659262 0  -0.4207091841266609 0.04992126597993612 0  0.8394524656852788 -0.1204728868496304 0  -0.8092094227335564 0.2598108991006964 0  0.323275210824397 0.2948523260610789 0  -0.01235717006850368 0.6206762832191056 0  0.5723120307309651 0.1478612873198991 0  0.6584453108854001 0.0296143784812711 0  -0.1127073123157568 -0.08060902155425154 0  -0.3263472417314189 0.8127807834423398 0  -0.5693189598496932 0.3829729594944991 0  0.1787115426866188 0.6583053932958268 0  -0.2086945469431951 -0.3537063371349133 0  0.1413875674469653 -0.4006527365317505 0  -0.8825665179032465 0.06059258382501253 0  0.644423923763579 -0.2353002930398254 0  0.6873112429813564 -0.5116720902927442 0  0.5622403797493952 0.6812145165111156 0  0.4206022107082307 0.5494267599564201 0  -0.6985923484076459 -0.4957346960056245 0  -0.4275853811955493 -0.5583578671446736 0  0.1085975446525227 0.4135614629143593 0  0.8462315462026486 0.146118149748369 0  0.0718775524803872 0.8683064513691334 0  0.2157671749860278 -0.8623003278851888 0  -0.0009650574677971344 -0.2802933617576216 0  -0.6918203030037906 -0.01878988057032068 0  -0.2381679848617855 -0.08884164997446616 0  0.423770719651625 0.1052277906161352 0  -0.04008614995957274 -0.5625247949542947 0  -0.1838372862262216 0.8544504343113826 0  -0.06228883656410056 -0.8932762362039349 0  -0.2167973337515742 -0.8688044943515117 0  0.5422127886147651 -0.3110393647923049 0  -0.08715913041914175 0.08797997509234301 0  -0.4554204244795622 -0.4363932914340152 0  -0.8358691411028879 -0.3329048731086893 0  -0.696161304464804 -0.2369706844702208 0  -0.5584023614893824 -0.2239903645074836 0  0.1899841503682763 -0.7125800017390629 0  -0.7645428941125212 0.4685002778378229 0  0.06385263338978434 -0.9031496607807421 0  0.1885230304214117 0.8638639632561416 0  0.7840064636769384 -0.375682112498297 0  0.20078000365488 -0.4988085223509479 0  0.3065188648271355 -0.2963540786387833 0  0.3818589112326135 -0.4559984283196847 0  -0.3101348374984462 0.02265782905399914 0  -0.09274097508423339 -0.3512064167914866 0  -0.6034356931010622 -0.6308547114517774 0  0.5306709666442585 0.4314779253418129 0  -0.04412882481905579 0.7280335190386622 0  0.368139879099501 0.7958703882135997 0  0.5664333444162233 -0.6996425847768714 0  -0.6116455351171063 -0.4268731036572567 0  -0.4025747561849136 0.4508638281790917 0  -0.2867957698889448 0.6713445967088895 0  -0.4986338823410387 0.7454077904527141 0  -0.1197223386227034 0.6012931190607056 0  0.6019841841703942 -0.0631137624285925 0  0.4793630357317586 0.335191930278104 0  -0.4057080951926841 -0.7351100538182147 0  -0.2500487025609878 -0.7222647261547557 0  -0.5202389861383073 0.2762579513581566 0  -0.004903510438664035 -0.7983375068467664 0  -0.8677303216271283 0.1682446337113246 0  0.9632923872213652 -0.2317627457812107 0  0.6359382133354268 0.2407019555277372 0  -0.1954327480994572 0.4704960404955171 0  -0.09318292723014725 0.2871443445734201 0  0.6543968779059033 0.5953449360951739 0  0.5860085732792212 -0.4855437761655895 0  0.02433540313127336 0.477708088704549 0  0.2050327353918737 0.1915327024870737 0  0.3019600516521567 -0.5224112525625693 0  -0.4559197183044352 0.6082074424089278 0  0.9877641290737884 0.07725424859373685 0  0.8445268748549989 -0.5180931878130919 0  -0.7537090588543289 -0.6430931878130917 0  -0.8115083307004233 0.366542657984397 0  0.9877641290737884 -0.0772542485937369 0  0.3157389177020913 -0.8506306959163319 0  0.3661954416712823 -0.6720495099691162 0  -0.2110888953948772 0.1307100872489919 0  0.2771278415803478 0.671246208704549 0  0.7755166821205643 0.4221168689217691 0  0.09258535306910454 -0.6974063904331503 0  -0.5180931878130919 -0.8445268748549989 0  -0.5636233828952756 0.1431321340909777 0  0.2093668298544761 -0.3254094489515746 0  -0.7452216441755674 -0.1347434040272279 0  0.3432419291961207 0.4903131612096761 0  0.9632923872213652 0.2317627457812105 0  0.8654704589902047 0.2558653845079852 0  -0.7721646645307192 0.03531578018689553 0  -0.9877641290737884 -0.07725424859373664 0  0.3972451269157145 -0.7968729007064921 0  0.2047656419391337 0.5125131148681941 0  -0.7107486842465451 0.2689580543411794 0  -0.8747057134039039 -0.1348381340198916 0  0.9075822029513861 -0.02495856901956285 0  0.4175383422250996 0.009896499472273557 0  0.1611803648706316 0.7520641323258265 0  0.293383900196892 0.8562452162748729 0  -0.9632923872213652 -0.2317627457812101 0  0.4226327034146973 -0.3675580274712185 0  -0.6211574309532173 -0.2954782403839667 0  0.5073765864410278 0.7586347332656206 0  0.3688379632316558 0.6293192053628369 0  0.484958551257918 0.6195737597560269 0  0.08576045253602423 0.639999587219085 0  -0.8445268748549991 -0.5180931878130914 0  -0.7797212151374868 -0.4352936457408597
[...]
<PointData  Scalars="f_1261-2"> 
<DataArray  type="Float64"  Name="f_1261-2"  format="ascii">0.0000000000000000e+00  0.0000000000000000e+00  0.0000000000000000e+00  0.0000000000000000e+00  0.0000000000000000e+00  0.0000000000000000e+00  0.0000000000000000e+00  0.0000000000000000e+00  0.0000000000000000e+00  0.0000000000000000e+00  0.0000000000000000e+00  0.0000000000000000e+00  0.0000000000000000e+00  0.0000000000000000e+00  0.0000000000000000e+00  0.0000000000000000e+00  0.0000000000000000e+00  0.0000000000000000e+00  0.0000000000000000e+00  0.0000000000000000e+00  1.7298048017143628e+00  1.1074901193591131e+00  1.1044167052142682e+00  1.1135422588655550e+00  1.1179268580116881e+00  1.1056779104636421e+00  9.5594018496378041e-01  7.9540074599480670e-01  7.6929864520851066e-01  6.3780757895654883e-01  6.3427531427819717e-01  1.4760704255032797e+00  5.7564975452010358e-01  1.4932978026109600e+00  6.6722116065639070e-01  1.3730711025627005e+00  5.3841467549104649e-01  4.6524444706954554e-01  5.7532052218635221e-01  1.5051945211030191e+00  1.5458953951618586e+00  1.5063038273596909e+00  5.6997332144059598e-01  5.3709294346661496e-01  5.0101832545473779e-01  5.1413450770444902e-01  1.0882985051922962e+00  4.3048792164208005e-01  4.3104226052464784e-01  4.2548115850151880e-01  4.1248013770391284e-01  0.0000000000000000e+00  6.2331532869880657e-01  1.0927436869519211e+00  1.0922411730197117e+00  0.0000000000000000e+00  4.2446830998424451e-01  1.1334057025733550e+00  4.0194936866030262e-01  3.9019534037332571e-01  3.7444342445806911e-01  9.2716669898716897e-01  9.9722336107440668e-01  1.6218086501534628e+00  4.0355628324133230e-01  8.0663201720143218e-01  9.4218159502502441e-01  1.3071556993447029e+00  0.0000000000000000e+00  7.6313088587831412e-01  3.9818823756486665e-01  1.1621704203351368e+00  3.2059701595770279e-01  0.0000000000000000e+00  3.3065288968861778e-01  3.6945633591243360e-01  0.0000000000000000e+00  1.6400209342243384e+00  1.6399886916376096e+00  1.4265432302803340e+00  1.4129125168618610e+00  8.6501357883054353e-01  0.0000000000000000e+00  3.2881811091062835e-01  9.9418915881674264e-01  3.5341365107786410e-01  9.8887840829586926e-01  1.1422515557954829e+00  0.0000000000000000e+00  3.2684800447363715e-01  0.0000000000000000e+00  0.0000000000000000e+00  0.0000000000000000e+00  0.0000000000000000e+00  0.0000000000000000e+00  0.0000000000000000e+00  0.0000000000000000e+00  0.0000000000000000e+00  0.0000000000000000e+00  0.0000000000000000e+00  0.0000000000000000e+00  0.0000000000000000e+00  0.0000000000000000e+00  1.4229040386814416e+00  6.8792423951503312e-01  1.4440719039303511e+00  1.6554846482007128e+00  1.6618396230535006e+00  1.3892120096854943e+00  3.0167956349451963e-01  7.7154103468573521e-01  7.5709695235295449e-01  3.1858114791892506e-01  7.4028556831700776e-01  2.7188977330242542e-01  3.4206607112386589e-01  9.2460958429763251e-01  3.0620909336826269e-01  1.3154787422507461e+00  7.3868046327240400e-01  1.2841892883391735e+00  1.2856374418983432e+00  1.0959065422671115e+00  1.2766145985977515e+00  3.0117471824711900e-01  3.0354023461409946e-01  1.2468909496153897e+00  8.4855056647736282e-01  9.1884783093707212e-01  7.5971438444939854e-01  1.6775363812792714e+00  2.4386588505388790e-01  6.9283683252791983e-01  6.9980983299289345e-01  1.3003902845505024e+00  1.2712831621790581e+00  2.2187253419346303e-01  6.9365440755430174e-01  2.9852665051194321e-01  2.3322915863863117e-01  6.8100235304239054e-01  2.9337227121496939e-01  6.5306970325542379e-01  1.2678382848875027e+00  2.8048558247987421e-01  2.6327515661583778e-01  2.1591530008428342e-01  1.5162329344046197e+00  6.8272614458313508e-01  1.5567997710510955e+00  1.2508232685782656e+00  9.7531258319170522e-01  2.5109589448056197e-01  2.0998055254587700e-01  2.0477673901697060e-01  8.3198551640462126e-01  1.6880978346649660e+00  8.2430587383599696e-01  2.0108971663884131e-01  5.7363044294472887e-01  8.9058825454977442e-01  5.7057364900515373e-01  2.0432364760709951e-01  1.8395092253389322e-01  2.3281614714828933e-01  2.5396284511946987e-01  1.0347313345571176e+00  1.2662954026712652e+00  9.0951302275995027e-01  1.4742896449656779e+00  1.3841397001157019e+00  2.4847642301933259e-01  6.9787641349285756e-01  5.9255392465224832e-01  2.4897949867125194e-01  1.9782809695160031e-01  5.5063737572310412e-01  8.8772093076646141e-01  5.9255207841186919e-01  2.0217545840105963e-01  8.6373375088648541e-01  8.8028945778345435e-01  9.3499214625385563e-01  3.3524930180621343e-01  5.1278540004899564e-01  9.2357342915396468e-01  4.2365832215252847e-01  2.2191958442551399e-01  0.0000000000000000e+00  7.0805637096692053e-01  1.1016363333375754e+00  1.4882928894188630e+00  2.2602189613839488e-01  5.1921190376961890e-01  1.1684338414869897e+00  1.5213551155989107e+00  8.8520424125298880e-01  5.2174698663772756e-01  0.0000000000000000e+00  0.0000000000000000e+00  0.0000000000000000e+00  2.0611887174216115e-01  0.0000000000000000e+00  1.8137415258955661e-01  5.0191435003905094e-01  1.5636829675468795e+00  6.0324102678459068e-01  2.2590098250043825e-01  6.4962362173398991e-01  0.0000000000000000e+00  9.4047785984267129e-01  1.3426334593051616e+00  5.2360955100524897e-01  8.9863989488383256e-01  0.0000000000000000e+00  1.8764735003345862e-01  4.8345910032521588e-01  0.0000000000000000e+00  2.1924415405879571e-01  1.0036995216127933e+00  5.1620025202350295e-01  2.1650750532970864e-01  1.8018678179256561e-01  1.2896336405713040e+00  4.9427136198952548e-01  1.9061428234508804e-01  0.0000000000000000e+00  9.8430347925506112e-01  6.9549278688899963e-01  1.7648868037906187e-01  5.9652243643293856e-01  4.5916103842850003e-01  7.8835974821335009e-01  0.0000000000000000e+00  2.0503577809074991e-01  0.0000000000000000e+00  2.0779125853384117e-01  1.6203537331470099e+00  9.0367265988046097e-01  8.9006302121435021e-01  1.1648989181834943e+00  2.1896895862287138e-01  1.2654876946480216e+00  1.2848812368819422e+00  1.6310119129011666e+00  1.7042030203621679e+00  1.6928052014867367e+00  1.6020850600436238e+00  1.5453899774712629e+00  7.6313885983994512e-01  8.8523771948016827e-01  1.3385685954156270e+00  1.0154564256570326e+00  1.7093780398156783e-01  7.7751800409748084e-01  2.0545441513996240e-01  4.4162608245948137e-01  0.0000000000000000e+00  7.8082508165670339e-01  4.7939133972980308e-01  4.9494750171738372e-01  1.1247678065722553e+00  1.2343870946608204e+00  1.4210668095012438e+00  1.6133409207470071e+00  1.5361235447825876e+00  6.2238869884103531e-01  4.5816735850667417e-01  6.6904142464202698e-01  1.4108569348925859e+00  1.8212205662366607e-01  1.1220797176610242e+00  2.1505149270490731e-01  2.0626235287167269e-01  3.9389191387275346e-01  5.2736079001952252e-01  1.1236654214788218e+00  1.2929832249418922e+00  1.5245841276879217e+00  1.4389290414028619e+00  1.5657277129868195e+00  1.5335740405857214e+00  0.0000000000000000e+00  1.7245000991124079e-01  1.9404612036295438e-01  4.9251835390433940e-01  1.0979301589274870e+00  1.7062494976256413e+00  4.9536937063634806e-01  5.4642908153909886e-01  0.0000000000000000e+00  0.0000000000000000e+00  1.0706008488303487e+00  1.5574768163606628e-01  0.0000000000000000e+00  4.2930302847815133e-01  1.2898626474050334e+00  9.4531671503303571e-01  2.0708779073455713e-01  7.9495240798232858e-01  1.1140171785484005e+00  1.1072270877800980e+00  7.9551678739826737e-01  1.0028498812615605e+00  1.2915011573694613e+00  4.2657421524646300e-01  1.8404502027335121e-01  4.4273052711208322e-01  1.4347286778969979e+00  2.0515369713973827e-01  1.5133108021197514e-01  3.9098206721361889e-01  5.1319687622319954e-01  1.2706201511362263e+00  1.7056151466250373e+00  0.0000000000000000e+00  9.2625288108795889e-01  5.6074607207769367e-01  0.0000000000000000e+00  4.2661879048484436e-01  5.0558991569163969e-01  4.2994217852345573e-01  9.2619209988145301e-01  7.2166954851549125e-01  6.8161175034830834e-01  1.1008888188508428e+00  1.2467694267590179e+00  1.5889173583568261e-01  3.8624537196479553e-01  7.2950091110993520e-01  1.1111967685341120e+00  0.0000000000000000e+00  1.4175051496796625e+00  6.2655768948784085e-01  6.3613843379623658e-01  1.1998011788731580e+00  1.2190373466214948e+00  1.4551155612162932e+00  1.0937086832691234e+00  1.4075918260944870e-01  4.3622346148661745e-01  1.7478483806942979e-01  1.7677859215110422e-01  3.7850527534142114e-01  1.3962753480123589e+00  0.0000000000000000e+00  5.8679477857395623e-01  7.0938531553054596e-01  1.5875480044832360e-01  7.0194795723579650e-01  0.0000000000000000e+00  0.0000000000000000e+00  0.0000000000000000e+00  0.0000000000000000e+00  0.0000000000000000e+00  0.0000000000000000e+00  0.0000000000000000e+00  0.0000000000000000e+00  0.0000000000000000e+00  0.0000000000000000e+00  0.0000000000000000e+00  0.0000000000000000e+00  0.0000000000000000e+00  0.0000000000000000e+00  0.0000000000000000e+00  0.0000000000000000e+00  0.0000000000000000e+00  0.0000000000000000e+00  0.0000000000000000e+00  0.0000000000000000e+00  2.4105604604290837e-01  1.4549469707479792e-01  1.0443962775104596e+00  1.1606356107147069e+00  1.0734961275040036e+00  7.7200966466211718e-01  8.1487357728174015e-01  5.5247945001026721e-01  6.1548211536383490e-01  1.2993038939326536e+00  1.0848774763029916e+00  9.2946933356261108e-01  1.6423043516918046e+00  1.7082288903863041e+00  1.6851551857380484e-01  1.2962298889817621e+00  1.2791646088489950e+00  1.4272387340507064e+00  3.8547665799765646e-01  1.4031744495423399e+00  1.0095049399674234e+00  1.6966515005963378e-01  3.4003967506471422e-01  3.9815124833141657e-01  1.2598113085630702e-01  4.3798644829554212e-01  1.4094558619829949e+00  8.3831080368124888e-01  1.5693768231089253e+00  1.4348570697169302e-01  9.9427142649797773e-01  1.3777837209703098e-01  1.6116049602670054e-01  4.0487981890435593e-01  4.1912623752126538e-01  1.5393632340550616e+00  1.3088216494188938e+00  6.5198913087769927e-01  1.0083731961738673e+00  7.4276838786076316e-01  7.2656051480247297e-01  6.6440622074115829e-01  9.4242718102883405e-01  8.4076479919734670e-01  1.6375290671693582e-01  1.5744710961860218e+00  7.8552894957519925e-01  1.5495487459032992e-01  2.1582913372292944e-01  1.4179555599802307e+00  7.5670279991795486e-01  5.9951436741145170e-01  6.8383012512854702e-01  3.7656085051851246e-01  4.0714457635937973e-01  3.6388762507294703e-01  3.6382433407393971e-01  4.5058492432224168e-01  3.5411520820488890e-01  1.6719955336936804e-01  5.6262701447013408e-01  1.1624107642691399e+00  1.3910919105791106e+00  9.3758384679929085e-01  3.5790168025911034e-01  5.6587680934403917e-01  1.7101142116328529e+00  4.7450741400307439e-01  6.4496800443845892e-01  5.3215481909796214e-01  3.8208889587720474e-01  1.0112703267174665e+00  9.1608935163025107e-01  1.3335197852236520e+00  9.0353094172293180e-01  1.3710375753884978e+00  1.5531148459317445e+00  1.2632409621378486e+00  1.6354934160896875e+00  7.3462452283660629e-01  3.2401774407989531e-01  9.6756811036204948e-01  6.9159256119406176e-01  8.1456647349227751e-01  1.5549647985175008e-01  3.2387821889221807e-01  1.3990131901627116e+00  1.2032098451150357e+00  5.4930410351571357e-01  8.6254230635472440e-01  1.1398793611162048e+00  6.8475891768673958e-01  1.3640769344582029e-01  1.3843268276391794e+00  1.1910066154631735e+00  1.0794086386586208e+00  1.4003750525840802e-01  6.6840810441433118e-01  1.6104340944337179e+00  5.8209334569058779e-01  8.4745717822852284e-01  6.5301086822203369e-01  5.5680194669222705e-01  1.4946188225375132e-01  1.1305359769464223e+00  1.3336564907280855e+00  1.6155306984012935e-01  1.5418702635336393e-01  1.9919706571877535e-01  1.5584043234354459e+00  1.5460421109421321e+00  9.6580133219677411e-01  1.3595642740822730e-01  1.3415607220060619e-01  3.5102275885643319e-01  7.8350655023377203e-01  1.3840303749314453e+00  1.2331851118361659e+00  1.2549221531142474e+00  1.2126363587629605e+00  1.3989013415925258e-01  1.3223111562107590e-01  1.6279780479305221e+00  7.3311882940474149e-01  5.8091714698491137e-01  3.8381364160988518e-01  1.0991688392986404e-01  3.2436524046767112e-01  7.7629846547980963e-01  1.4524316359286721e-01  1.1330564956328699e+00  8.3544695086656251e-01  9.7588953465796036e-01  1.0878344114795160e+00  4.3228876664869526e-01  4.5209948893878471e-01  5.3096914664124562e-01  3.8910002210938716e-01  4.6679522646435229e-01  1.3551562532083325e-01  3.2149100266930247e-01  1.1254264643470133e-01  3.7359424958808773e-01  3.9972528677794084e-01  1.0515061322243953e-01  9.4817190038901578e-01  1.4689528298353509e+00  5.4461789347079181e-01  1.0163769705582264e-01  1.1672230379736754e+00  8.0618694247495859e-01  6.7785315661274181e-01  1.2907558713408221e-01  6.6522938004245447e-01  1.5639857407874098e+00  2.6907428863588378e-01  1.2737354341992460e-01  1.0445043020285845e-01  7.6890097557719239e-01  3.3277335663075586e-01  1.4000799367206134e+00  1.4192285312694366e+00  8.8733824326936528e-01  3.4270310566974477e-01  3.8483903022045862e-01  1.4873019429528369e+00  7.4142265728239132e-01  7.5669866061452340e-01  8.5860496342375181e-01  9.6892309176795310e-01  4.4939105180120853e-01  7.6782625699089901e-01  1.1035125213447036e-01  1.4441348722563513e-01  1.1874125457198792e+00  1.3539233031716666e+00  1.4502718836053965e+00  1.6650299294825666e+00  1.6706148089215158e+00  1.1565611424700022e-01  1.3629560928781070e-01  3.4270686831205932e-01  1.0088999872153168e-01  3.5071878175850046e-01  1.1972955157723753e-01  1.3063377876780921e-01  8.2255516789276417e-01  1.6696407725366342e+00  1.5163947520744717e-01  1.4707016816627774e-01  8.4004513594875951e-01  6.1648616207398643e-01  8.3036544972891391e-01  1.2155143023958763e+00  1.0406682603085506e+00  8.6925840728696646e-01  2.0825149233481491e-01  1.7108542952334207e+00  7.3383934525255523e-01  3.5901912297051847e-01  1.4490710619087743e-01  1.3308275908723211e-01  1.0778893740924382e+00  1.6005391367663606e+00  1.3657970189127770e+00  3.1677083157058761e-01  1.3018395318611065e+00  5.0292493485009770e-01  4.5742372406279980e-01  6.7554861017215195e-01  4.7238182794654732e-01  4.4675232956506356e-01  7.7249132312045576e-01  9.8907237223567845e-01  1.0427883756269796e+00  8.6352712275549900e-02  1.4072927754191633e-01  1.1958555280904588e+00  8.6576618453044718e-01  1.4462576610090572e+00  1.0136846457863884e+00  3.4029261535591981e-01  6.5154137655346678e-01  4.9894972195804010e-01  2.7687079117823177e-01  9.0669590296110797e-02  3.0600172896653210e-01  1.2034618315968428e+00  4.2955408926306804e-01  1.4857447091706241e-01  1.3203941116584028e+00  1.4426613233330937e-01  4.4101677273791989e-01  2.8946457966958195e-01  1.1433708336344697e-01  5.9732353616525780e-01  7.2016899859431383e-01  1.1186231609887149e+00  2.8686325913489247e-01  2.7090228328679755e-01  1.4146816066628209e-01  3.0323700294611605e-01  3.9161529231509629e-01  2.7299987354262745e-01  5.5612868019077177e-01  1.5959246194971710e+00  3.6674811456885514e-01  1.4006392579573732e-01  1.3519042226802545e+00  1.4225798166816159e-01  1.6070841729994472e+00  1.1587883229734761e+00  1.2213276084251117e+00  1.2426980627866492e-01  8.1554731183469742e-01  3.7279017269558146e-01  1.0160208203203005e+00  9.8780196828627864e-01  1.2708666927327064e-01  1.1531465852243656e+00  9.0011001959928616e-01  1.6254106288034120e-01  6.6952555577846495e-01  1.6857903181906209e+00  1.3626193102875275e+00  1.2051948885285897e-01  1.5315453061530779e+00  1.0892190197780720e-01  6.7682295359236144e-01  1.1919803821380426e+00  1.6966455511959890e+00  2.7028034175924243e-01  6.0755453005634574e-01  1.2201500432281037e-01  4.6759677434074637e-01  4.3871143393382461e-01  2.5551125462279423e-01  8.0622090807809188e-02  2.8707917709501196e-01  3.0079468028186113e-01  1.1833529059851866e+00  1.4609658633173057e+00  4.2954069891146801e-01  5.7360358644071185e-01  6.8420388226726470e-01  1.0552031074035113e+00  6.2579526266500007e-01  5.0896000840914180e-01  2.7398076257019666e-01  1.2892163541051277e-01  1.6240084022961556e+00  2.1928982407657380e-01  1.4859600097182390e+00  9.5610464914735149e-01  1.6782677018661294e+00  9.8689072205312645e-01  7.7447677289187056e-01  8.2297310199393148e-01  5.5677123756051805e-01  1.3400905182328718e-01  9.9723487368144709e-02  2.8519869913923296e-01  1.0197079137540205e-01  6.6860366133656945e-01  8.9146661831973517e-01  1.0299339539521468e+00  9.4110355685948988e-01  8.0205824328002284e-01  8.8350417974654216e-01  0.0000000000000000e+00  2.4050176202114298e-01  2.4286843351956897e-01  2.9583168852295966e-01  7.6941775553513603e-01  1.3404807823848897e-01  1.0225603215456960e+00  3.0261152684192638e-01  3.0300841074056906e-01  4.5892326005379025e-01  1.0148134644842277e+00  4.6902828558393556e-01  5.4403095215731867e-01  9.7349954678955808e-01  1.0681484455650980e+00  2.5920023834611061e-01  2.4233583734439976e-01  1.5642867507992566e+00  1.5929076123411197e+00  1.4892518720379888e+00  1.5755141601579612e+00  1.0031975285682202e+00  8.3650279986662704e-02  1.6100219373635078e+00  1.6638039639379711e+00  1.6797621022387361e+00  1.6484884704590477e+00  4.1034818240883536e-01  1.0008599972727912e+00  1.1253866424532329e-01  6.0039634825179511e-01  1.3968727027816492e+00  2.5543191326722570e-01  2.6652634299854860e-01  8.2134825606048478e-01  8.7146283856849660e-01  8.9138150319982612e-01  3.0540814190125809e-01  6.3203840257901134e-01  1.0760706222614858e+00  1.2321829922015268e+00  1.0483415304845167e+00  9.7390737228550306e-01  5.7194107687304208e-01  8.4031028994851945e-02  7.8831678228485391e-01  3.9476132317054879e-01  2.4024710301672084e-01  3.5731992095278120e-01  1.2023097514743901e-01  1.4044226807339180e+00  1.5175430744857350e+00  0.0000000000000000e+00  1.0984466821437715e-01  1.2370404471071272e+00  9.7536793162731050e-01  4.0607167914999870e-01  1.5796667832763853e+00  6.5745753455719491e-01  1.4780947049959450e+00  5.7073154229681811e-01  4.7603873441155642e-01  4.8915098248709138e-01  1.5238044575048812e+00  8.3395918524189760e-01  1.4953180716430465e+00  8.7649198011313467e-01  5.3706105026116413e-01  5.2081795959788968e-01  4.5827048377405033e-01  1.5009340584461373e+00  2.9874592965266145e-01  7.7902578311626081e-01  5.6733393271594634e-01  1.6714935283738479e+00  5.9668186319410810e-01  1.7148722858779444e+00  1.4300051027290079e+00  7.2741995458010078e-01  6.7201069646050193e-01  1.5031461329125966e+00  8.1779616777543279e-02  7.8548718053253785e-01  1.5752824446117730e+00  1.6472610173937010e+00  4.7218179075634559e-01  1.3328241408833574e-01  1.2078355052241383e+00  2.7839405256033112e-01  1.2972005774710700e+00  2.6287414907010059e-01  6.7538751376189798e-01  7.5563670256421911e-01  3.0686414217476715e-01  3.0111422652813491e-01  1.5489187978081795e+00  2.8039566802034260e-01  2.5471968144175167e-01  1.0341901362060403e-01  9.3022798534043410e-02  1.5695189663102667e+00  0.0000000000000000e+00  1.2276249643196646e+00  6.5928710695859449e-01  1.5603007564839569e-01  1.3814735006274597e+00  </DataArray> 
</PointData> 
</Piece>
</UnstructuredGrid>
</VTKFile>