<?xml version="1.0"?>
<VTKFile type="UnstructuredGrid"  version="0.1"  >
<UnstructuredGrid>
<Piece  NumberOfPoints="1084" NumberOfCells="2042">
<Points>
<DataArray  type="Float64"  NumberOfComponents="3"  format="ascii">0.855514644808588 0.1284292535948348 0  0.8401757085691636 0.1679271747730996 0  0.8685129340651084 0.1562044951412642 0  0.2953999206664901 0.04026370973839133 0  0.2727107741580766 0.01031336678820788 0  0.3004070358461022 0.01290117244408536 0  0.4617886276769411 0.3353957442895661 0  0.4912817337304227 0.3727061397179142 0  0.4539709876153052 0.371887476088316 0  0.6201251410376256 0.09688459113817011 0  0.6434001565788463 0.05268175586883797 0  0.6090301150055984 0.05952666244658643 0  0.7522939267922419 -0.4004965413794968 0  0.7410711755224456 -0.3707162955646782 0  0.7692118971124989 -0.3688759676569528 0  0.4837222547114566 -0.1926490854371977 0  0.4404107886116583 -0.1817985809085617 0  0.4521001971762039 -0.2135861488778773 0  0.2318050003585312 -0.213983931316002 0  0.279870004255202 -0.2093774048708557 0  0.2531130340729764 -0.1832532667015915 0  0.6577307878643813 0.01859320948141046 0  0.6731683632256446 0.06173300968351035 0  0.4570919891687704 -0.7530397486460687 0  0.4834647135726919 -0.7163555249546549 0  0.4939499054031887 -0.751715398330822 0  0.5059612714748689 0.08938903128408915 0  0.4745336821831974 0.1055944983868761 0  0.4818436008576278 0.08119395861908205 0  0.8019718439111608 0.1285398753848373 0  0.828768626354068 0.1407698751999194 0  0.8067220340387148 0.1536036869636551 0  0.4816529363189698 -0.5359538809713272 0  0.4523462244666195 -0.5572691952876961 0  0.4775209246136201 -0.5610774755678507 0  0.663894096090064 0.2381656457450875 0  0.6583074584565023 0.2679951024258648 0  0.6898314402074481 0.2375971204039016 0  0.5840968071904051 0.6781291660011531 0  0.6081536160770576 0.6509575991874648 0  0.5645001116370951 0.6602149860435697 0  0.6302163977109844 -0.1384037938153676 0  0.6264742913672765 -0.1653262152652349 0  0.6571836951961331 -0.1409653464511229 0  0.6526673797513434 -0.1725886017542859 0  0.3207452767915521 -0.7743475972972779 0  0.3051159099885882 -0.74565385731203 0  0.281642659294784 -0.7869587443019139 0  0.4276326631853311 0.6998590113916514 0  0.4191852691759226 0.7336049125921794 0  0.4449124569695793 0.7221147922856616 0  0.6301972231455205 0.02624839768945893 0  0.5941437518154578 -0.7280398936550003 0  0.5583487284632143 -0.7159771428697908 0  0.6016735120122167 -0.6911967819646654 0  0.6928094442470396 0.1904974778732374 0  0.717589563559959 0.2070725087516031 0  0.6783517701685519 0.2143315618091625 0  0.2441736859806193 -0.013238280349902 0  0.2461856651365579 0.03610995718233868 0  0.4146008664590951 -0.4415804827735934 0  0.4058550639008564 -0.4770503152532232 0  0.4285933982095163 -0.4638437669233825 0  0.4877130603296085 -0.4830992039877709 0  0.5173710650302155 -0.4703644675802144 0  0.4832226915370715 -0.4541010388389044 0  0.753529457929813 0.2721455277143517 0  0.7346302836380226 0.3096966442310014 0  0.7632719411464213 0.3088750052106449 0  0.4826801558829261 0.5278655850029362 0  0.5163801363355287 0.5514905609086045 0  0.4896711031694089 0.5537415604987794 0  0.5333164770431995 -0.3553698665924153 0  0.5566194127645377 -0.3972810158513128 0  0.5074218841298895 -0.390129421105847 0  0.7633927378420774 -0.1714187069867768 0  0.775818430854639 -0.2079874905708813 0  0.7485205588418528 -0.1968675715456987 0  0.6567436512179938 -0.01837193016516887 0  0.6703694082604046 -0.05423337209811997 0  0.6823086839339092 -0.02917766442428712 0  0.7866092159292974 -0.08959516526956038 0  0.8267411211129154 -0.1073468612290715 0  0.7905527424518393 -0.1349195686897359 0  0.7018052076891695 -0.2646560196462904 0  0.6897452306892373 -0.2916040180581805 0  0.7201306804142041 -0.2877400974731488 0  0.8692218613448256 -0.2238553918305647 0  0.8322842055378167 -0.2359165218493522 0  0.8716333364862425 -0.2601179532538458 0  0.3770975254229973 0.2052786382865996 0  0.3462470755101406 0.1818445585451582 0  0.3883445771415037 0.1734676944461349 0  0.3990774181991369 0.6395744274345501 0  0.3893098346706337 0.5981339437685964 0  0.4338166442351258 0.6185165507063383 0  0.6279363620429745 -0.4565435787275231 0  0.6312840511604255 -0.4860490351929785 0  0.5996715865838221 -0.4604967465906787 0  0.6526083034174084 -0.4059154258837066 0  0.6197745815523182 -0.4212406070573856 0  0.6486815208598259 -0.4353274396169158 0  0.4649732065653127 0.644584090322598 0  0.4599964336777923 0.6814720875592684 0  0.4279777209540104 0.6627903347584941 0  0.2975684718453496 -0.8148220276284073 0  0.3179682113657381 0.263918242958 0  0.3628401903392844 0.2500335966355188 0  0.3530563289991845 0.2925471847247619 0  0.4232385316346942 0.8552292225523547 0  0.4569048097115439 0.858221905521001 0  0.4307446923074866 0.827091753929455 0  0.3439417099236332 -0.6121401089662168 0  0.3336331521217348 -0.6585880711314719 0  0.3139760020744123 -0.6324626775742214 0  0.2719355431455361 -0.330845579650162 0  0.3107513078508887 -0.3502396500625142 0  0.2992402364002463 -0.3247377452555354 0  0.7273890775054482 -0.452979262649708 0  0.7740427483845034 -0.4429675650790261 0  0.7468751089474893 -0.4300755894100581 0  0.8094614961641105 -0.4108191651756637 0  0.8477992092768174 -0.4083547801526269 0  0.8147339578252027 -0.4415671870382508 0  0.8922858534485971 0.3232125341049065 0  0.9044971171791155 0.3534240947485029 0  0.8629196718937504 0.3371044152463425 0  0.2407883623302344 -0.1479473392268321 0  0.2730272609728244 -0.156497438393835 0  0.3307913455705996 -0.32209112772894 0  0.766275469157831 0.3373705917986213 0  0.7270117214537798 0.3523913526578815 0  0.8319607513199512 0.3272605228421564 0  0.7989049251164099 0.3309304901182515 0  0.824837263545015 0.2977687172274117 0  0.249516574909788 0.1178078844211209 0  0.2716680139985999 0.1561236297338532 0  0.2469001150279252 0.1448816014928452 0  0.4612095051405225 0.2796267787367558 0  0.4399968457209265 0.2520938278100669 0  0.4320408894657748 0.279964208566487 0  0.3045634694125486 -0.06243381060209528 0  0.2942947845364635 -0.09362749621171698 0  0.3353695251572911 -0.07291031180159256 0  0.4856483370451747 -0.1033700494823073 0  0.5093748673045058 -0.08876042035668917 0  0.4999146978089363 -0.1259913802953386 0  0.4521025910604496 -0.05765972030898988 0  0.446660205837974 -0.09817789138252699 0  0.429913083215876 -0.07530382919885834 0  0.550527153827516 -0.2346250253440536 0  0.5261574413737675 -0.2679083337833422 0  0.5524186399467528 -0.2754608763866272 0  0.8131787875009359 -0.01927434390670453 0  0.8240159726573677 -0.06354884655944232 0  0.7910692363604553 -0.05611622361698246 0  0.7069393984352208 0.08539575425191143 0  0.7027708824288577 0.117088790284357 0  0.7398787353706419 0.1215224010900196 0  0.6210119602230632 0.3495795219907357 0  0.6330973247234325 0.3222513631541384 0  0.6006449749607594 0.3266654546086818 0  0.3205094818381062 0.2935230830304627 0  0.8692238381416554 -0.06937336933960382 0  0.8920901992014005 -0.03383852388756705 0  0.8528265591974253 -0.02551578573929181 0  0.313677012066451 0.4739757357189519 0  0.356933486269603 0.4532178779552468 0  0.3212332021116325 0.4421879101504542 0  0.7993845088512088 -0.3191032448008495 0  0.7981393611444598 -0.3656515995679219 0  0.8371820238843944 -0.3415922536812541 0  0.7572754232728257 -0.3433258676436134 0  0.4302969745649615 -0.2395035413732142 0  0.4759315572375045 -0.2376518511867936 0  0.4544063406789307 -0.2667901314395152 0  0.52632051276521 -0.1860379727460288 0  0.5127021816032775 -0.2231463284444579 0  0.5130774703705813 -0.7271685383126054 0  0.4981922147610836 -0.693527886028845 0  0.5955362440817511 -0.539296132230121 0  0.6269403852469492 -0.5154243913626334 0  0.5941310535234843 -0.5134743264378505 0  0.3715370558029863 -0.1276927708807367 0  0.350771913427069 -0.1691674218569566 0  0.3383247145665093 -0.1369998995062197 0  0.2571348934472276 -0.114848350484653 0  0.3245813686030676 -0.5090938006310397 0  0.2898101893773494 -0.5322742382375469 0  0.3097668948301008 -0.4870249702742697 0  0.436389274477459 -0.497106737241813 0  0.4182472220506184 -0.5230574098665104 0  0.6860123772503671 0.6015382248079207 0  0.6559578052262283 0.6098402848363254 0  0.6659102595680665 0.5774981687032396 0  0.5153107235880576 0.4679293864478142 0  0.4746392728257074 0.457645312765729 0  0.4876578830882682 0.4917250737488673 0  0.5381660976947072 0.3647208202273673 0  0.5305949181784023 0.3232975171575244 0  0.5550807010809974 0.3402256732513771 0  0.658480117055714 0.3380183588705503 0  0.2839087186237294 -0.3719978169189649 0  0.2838678752012256 -0.4022164590173402 0  0.2548745784299392 -0.3724504092108006 0  0.325728135299952 -0.3813786458865954 0  0.3484244504069957 -0.4080754036437784 0  0.354013158286477 -0.3803281064287605 0  0.4715292481904923 0.7313591138687013 0  0.5001911911600448 0.7534954224541985 0  0.4580711757577816 0.7571756731497552 0  0.6529518573269545 0.2028453820933581 0  0.6407642248551683 0.2259810857045496 0  0.4712310949182194 0.4158324750007106 0  0.5010709803688921 0.438678961626021 0  0.7775764120351573 0.4699429140366598 0  0.7381200155673009 0.4904481012096953 0  0.7693873032885354 0.5023992010519285 0  0.4909250896077311 0.3072056924027643 0  0.4630002285094164 0.3074956729722098 0  0.4220797114502626 0.1993743766825203 0  0.4527996090503869 0.1717119486727273 0  0.4493873393890447 0.1988113934912993 0  0.9447375387382059 0.1137033102122951 0  0.9433340449978349 0.1580653845752386 0  0.9647496713575022 0.1365396774390762 0  0.7550430303852204 0.2032040656165406 0  0.7275746345475357 0.1789818640606326 0  0.6866301107036872 0.2788962205154981 0  0.7195828011484168 0.2705957722737886 0  0.6425041534568772 -0.08060062161762281 0  0.6228846673142369 -0.04336766294357697 0  0.7087130943391372 -0.05544416125599747 0  0.5490320459835896 -0.149397767245787 0  0.5690588180890829 -0.1916731886489846 0  0.6158186668233055 -0.190331770691776 0
[...]
<PointData  Scalars="f_2500-2"> 
<DataArray  type="Float64"  Name="f_2500-2"  format="ascii">1.0337112424899200e-01  1.1006033582468287e-01  8.9285686714815501e-02  5.4397578409593805e-01  5.5693571911504158e-01  5.4181203505106668e-01  3.5139407613225954e-01  3.1312848187010717e-01  3.3812997337477424e-01  3.0390009851410621e-01  2.8890740049196889e-01  3.1715225604803227e-01  1.1397637413924466e-01  1.3338611857438640e-01  1.1296655351753974e-01  3.9175286463444320e-01  4.2608719082929664e-01  4.0798724216722371e-01  5.3418278079653525e-01  5.1399815165152729e-01  5.3569667528220200e-01  2.7823439149021795e-01  2.6273191423978526e-01  9.0578669383251237e-02  1.0403569592249175e-01  7.5533111382328280e-02  3.9716193013785528e-01  4.1868449041919376e-01  4.1654450917465224e-01  1.4697744830790246e-01  1.2342896614485828e-01  1.3947848762173989e-01  2.2470758347833295e-01  2.2728018519846516e-01  2.1088543756217512e-01  2.3774791742840909e-01  2.3309080719451900e-01  2.1708697087822268e-01  7.9244112638021627e-02  8.2422256660939691e-02  1.0057215486422363e-01  2.8888219223461442e-01  2.8676094694426113e-01  2.6606707636866556e-01  2.6357777505809987e-01  1.2558920779656893e-01  1.5249914611153723e-01  1.2749161127608807e-01  1.4030578599413621e-01  1.1990119309237637e-01  1.1721504782237978e-01  3.0102025001171606e-01  4.4001380185516192e-02  6.8783142874862840e-02  6.2130879052916879e-02  2.2649735704355695e-01  2.0223602669990615e-01  2.3254742512997134e-01  5.7078295287578673e-01  5.6866118178231395e-01  3.2238218427231996e-01  3.0486161172846571e-01  3.0054978055234233e-01  2.5373688698911334e-01  2.4308993046080027e-01  2.7372011555222858e-01  1.5630165410451299e-01  1.5980370387235887e-01  1.3758613593265026e-01  2.2937093310485984e-01  1.9491392664503696e-01  2.0874107648149678e-01  2.9284047683835407e-01  2.5630641121865982e-01  2.9325101323888175e-01  1.7211862409682657e-01  1.5449427790912026e-01  1.7933981111002981e-01  2.7895368649480989e-01  2.6581730519400981e-01  2.5679835530637479e-01  1.6410230193012479e-01  1.2930470353780182e-01  1.5571414936000064e-01  1.9955008529603546e-01  2.0048213075247617e-01  1.7801399992265513e-01  7.7228933218370946e-02  1.0340273819727026e-01  6.7333422410109436e-02  4.6068686002720044e-01  4.8725050426923633e-01  4.6339981154346788e-01  1.9625196623049837e-01  2.3072956504440320e-01  1.9508072812984675e-01  1.7708013496338476e-01  1.6001486544879925e-01  1.9452786976281525e-01  1.8399620028992233e-01  2.0023222334068841e-01  1.7313761340003381e-01  1.6163227981796133e-01  1.3884867689355054e-01  1.6656189885348527e-01  1.0131137083975573e-01  4.7204691644843821e-01  4.5277349471985578e-01  4.3943130509860212e-01  3.3242054434187193e-02  1.9232852034202514e-02  4.9366482321274489e-02  2.4044439034087506e-01  2.0962126384282914e-01  2.3725415145298831e-01  4.6156711235934639e-01  4.3211781967856772e-01  4.5162842736253928e-01  1.1001363968642576e-01  8.1723925075318643e-02  1.0588826301990878e-01  6.8848934349527602e-02  4.3247054653224294e-02  5.4181246048090541e-02  3.6953315643579010e-02  1.9863600983850982e-02  5.4084980244724315e-02  5.5213958860310519e-01  5.3441233907061392e-01  4.3718852153072441e-01  1.2608623637702529e-01  1.5062538233959485e-01  8.0114431398010708e-02  1.0360102266343553e-01  9.3741527381142345e-02  5.5547496349407144e-01  5.3524830707727511e-01  5.4995818205007529e-01  3.7696226847811959e-01  4.0240136548291444e-01  3.9622393909131254e-01  5.3678817418136715e-01  5.3777193846284221e-01  5.1749183093356077e-01  4.1059789709123118e-01  3.9467826893558183e-01  3.9559838753405813e-01  4.4153977184207660e-01  4.4027849514566247e-01  4.5539479873100236e-01  3.2852520320736628e-01  3.3505271015398669e-01  3.1264866238297651e-01  1.4595916888134672e-01  1.3543328561362172e-01  1.6312059230581061e-01  2.3203238539880883e-01  2.3162940583701680e-01  1.9979909898169679e-01  2.3144186419531426e-01  2.3338092556167400e-01  2.5620312645710169e-01  4.5672338786684968e-01  9.7767682482237203e-02  8.0908673010824897e-02  1.1301484668065591e-01  3.5336054806184297e-01  3.4638302829062545e-01  3.7111131778333328e-01  1.0692420749701724e-01  9.2896362788273137e-02  7.1958264485412760e-02  1.3105911691467720e-01  4.1381120190820586e-01  3.8277607493905952e-01  3.8671600045136995e-01  3.6163141170633734e-01  3.6094008117040360e-01  8.3191734558355837e-02  1.1242276230472338e-01  1.5429780437507881e-01  1.4758840429237968e-01  1.6974687296922567e-01  4.8595930824205152e-01  4.8831916791196006e-01  5.0408400392526176e-01  5.5231510270226492e-01  3.2401879664525807e-01  3.2216828083329085e-01  3.4598682641511597e-01  2.7523546478311706e-01  2.6820981548814476e-01  6.5299330961050742e-02  7.8703166775288769e-02  8.9927212709625545e-02  2.4572270703327936e-01  2.7699939820172231e-01  2.4874617570057836e-01  2.8484948792024695e-01  3.0929679883849071e-01  2.8400208437429070e-01  2.0802514012956591e-01  4.3243994733345514e-01  4.1395575868175621e-01  4.4465188379386389e-01  4.0685470599903434e-01  3.7918464440038646e-01  3.9234259236458979e-01  9.9271110626373282e-02  7.1740820725821011e-02  8.7064958199214670e-02  2.5623249305258489e-01  2.5977253517890014e-01  3.0326638148887219e-01  2.7128470142590411e-01  6.8380020767068755e-02  8.6172345932252897e-02  6.0215199512993506e-02  3.4451409246650921e-01  3.6322609874993589e-01  4.3342957485544414e-01  4.2010309198694351e-01  4.1441285963176405e-01  3.4904132789827645e-02  3.1417221131740204e-02  1.7831326007135224e-02  1.7255278913568789e-01  2.0017837142907213e-01  2.0723393457616712e-01  1.8369084078531697e-01  2.8692164691539784e-01  3.0677179157906026e-01  2.3301917880030978e-01  3.5282882819935879e-01  3.2691226397787332e-01  2.8954926364389422e-01  3.1248778439625025e-01  3.2085435349852004e-01  3.1063740436533949e-01  1.5990125915278880e-01  1.7844055104919174e-01  1.5394539058771275e-01  2.2678197923895443e-01  1.8005776140882782e-01  1.6980354636100442e-01  1.5678675268127470e-01  9.2790207609592126e-02  9.6224368451618164e-02  7.2526867230412254e-02  1.1766936025294029e-01  1.1355339351188963e-01  1.4721081800329230e-01  1.4311816842188563e-01  1.6878977220572547e-01  2.1317323088530749e-01  2.0152955334007858e-01  2.2346871053919076e-01  2.5707596192311849e-01  4.6863563160013394e-01  4.5317192668866996e-01  4.7429847160928729e-01  3.8263078522390753e-01  3.9079029541010246e-01  4.0153611472189404e-01  3.6754121049136929e-01  3.6578355272972751e-01  3.4717691487282126e-01  4.5014143932457118e-01  3.9215799017569941e-01  3.7666925635167947e-01  3.7204252729054910e-01  3.6037390524636992e-01  3.5781275649187921e-01  3.1905611632648218e-01  4.1455823263625619e-01  0.0000000000000000e+00  2.4737604216291953e-02  1.8638116673481021e-02  3.4257523442591303e-01  3.6856657191083425e-01  3.6841457159302676e-01  1.9764210314558880e-01  2.0939995276482232e-01  1.7111825996325361e-01  2.1531440867656243e-01  1.8430889606888254e-01  9.8329596295857011e-02  1.0105106209055979e-01  7.8290444998088640e-02  5.8298162161066938e-02  5.6480854146126920e-02  5.2291891978975058e-01  5.0765594083453325e-01  5.2781710014030414e-01  5.4283621834159324e-01  5.2657262150356221e-01  5.2478561450969075e-01  2.5085781020336367e-01  1.4880442197776997e-01  1.4179330287615538e-01  9.4264281648521395e-02  1.6623700272066186e-01  4.7022668989732230e-02  2.4828793795978500e-02  4.3651875392533519e-02  0.0000000000000000e+00  0.0000000000000000e+00  8.8356470253602132e-02  6.3939357273568392e-02  6.6517731242854636e-02  3.7708958764136929e-01  4.0482786814495902e-01  3.6870393045589167e-01  6.5766916624860561e-02  7.3020577950213938e-02  5.2460862470701836e-02  1.6990959343974371e-01  1.8789836859527045e-01  9.6472396717868891e-02  5.2590328186965074e-01  5.1337159710568336e-01  5.3152499481559545e-01  8.8335010602786659e-02  2.1174876999387088e-01  2.3969046302699037e-01  2.1022952728457572e-01  2.0887225941877699e-01  2.4058552634971100e-01  2.6996497168109973e-01  2.5633158515406135e-01  2.9899586113320664e-01  3.0056319170830487e-01  4.9778654486117857e-01  4.7503069840548867e-01  4.8135354326734214e-01  5.3670386671081693e-01  5.1454982768892499e-01  5.1517014963082786e-01  1.2017361885649268e-01  1.2481383601508837e-01  9.7622783060711968e-02  1.3126308269576401e-01  1.4961058191820448e-01  5.8274639547455813e-02  7.2090737380911346e-02  4.9503925272018696e-02  8.6726028764814972e-02  1.0975112945743271e-01  8.1605150081252270e-02  1.5894172014787070e-01  1.2428554278663437e-01  1.4720588556423725e-01  1.2928177761645676e-01  1.4536300668514149e-01  1.6058598878495059e-01  3.9991611264187998e-01  3.7711343422573362e-01  3.6368729822420837e-01  3.2805799910923311e-01  3.4072563273719925e-01  5.4858670628909645e-01  5.6229248239767837e-01  2.0255795204698157e-01  1.6765657387333899e-01  1.6221484041482526e-01  1.3509231533327698e-01  1.2160608912610725e-01  3.8831118261833397e-01  3.9888364329145981e-01  3.8330119200568424e-01  2.1397571697022841e-01  1.9201620428594174e-01  1.8895855222149099e-01  2.1130262107315570e-01  2.2761590166598697e-01  2.5753603185125029e-01  2.3837165580257105e-01  4.4509968907451791e-02  1.9152503535631665e-02  5.2467497612683718e-02  7.7497925067377363e-02  5.2892849120789114e-02  4.9703528474253071e-02  2.3881988543972339e-02  2.4838439630247542e-02  6.6078772290829410e-02  1.2190166048762997e-01  1.3329892620694950e-01  1.1166587747189756e-01  6.4776426935047718e-02  8.2101531024334151e-02  4.0173396407076373e-02  2.0083732245090781e-02  7.7253380309939890e-02  9.0261388782212654e-02  1.6882862683898067e-01  1.3841478045700031e-01  2.1735499259707791e-01  4.5452228803015055e-02  2.9521300768604042e-02  5.4137798202665774e-02  9.6822993225415072e-02  2.5906596347949118e-01  2.7421797767775707e-01  2.8267056904542626e-01  5.5840192004920131e-02  7.6486244698109704e-02  4.6646607063027999e-02  7.9957822158209846e-02  1.0881239462946360e-01  7.6352714605565725e-02  8.4005743000114222e-02  9.6247952790919800e-02  6.4204301803916508e-02  5.6693641500489896e-02  2.8871307629136658e-02  0.0000000000000000e+00  2.4942295176956963e-02  3.2127769641893039e-02  5.8140851130773080e-02  5.2005541250969879e-02  4.4679749320606178e-02  2.7429113394032215e-02  0.0000000000000000e+00  0.0000000000000000e+00  1.9211632204813485e-02  0.0000000000000000e+00  0.0000000000000000e+00  2.6404498187255633e-02  1.5369211871668596e-02  7.1454382197834926e-02  6.9087861658372218e-02  5.4143870423350490e-02  3.9356197143980559e-02  5.3172609445174539e-02  2.1084370066312176e-02  1.0332396632792887e-01  1.3836590448453975e-01  1.3285372610572771e-01  3.8163991417158941e-02  1.9157196313129593e-02  3.9473766732803561e-02  2.7080068016081277e-01  3.0500235757865812e-01  3.4157611213653910e-01  3.3513534617591867e-01  3.5316032331195074e-01  5.1172935211874182e-01  5.1902874537243560e-01  5.0593476309601104e-01  4.3347584523438948e-01  1.2426451465186099e-01  1.8356368202692874e-01  1.5756426815151611e-01  1.7486918446325483e-01  1.2002372032639699e-01  4.2945651890964144e-02  2.2498378009967741e-02  6.5330891549328918e-02  4.3460939700422627e-02  4.6813043167891796e-02  1.3390041222625368e-01  1.2505522415723799e-01  1.2950455789566034e-01  4.9766139737969550e-01  5.0162593517060716e-01  4.2495410820409646e-01  5.3319309421733053e-02  7.6278178182683481e-02  3.7674281102255444e-02  7.1269007188916947e-02  4.4786384910533147e-02  4.8465159945823616e-01  4.6338545386890090e-01  4.6561835593791773e-01  4.5437156411230761e-01  4.2817240098492826e-01  4.4634809434342892e-01  4.0970309962684126e-01  3.8313985687914920e-01  4.0061596600736432e-01  4.2429957221334397e-01  3.3163748532470988e-01  3.0563332307487523e-01  3.1933352540869892e-01  2.3766718527327568e-01  2.2130138915251130e-01  2.4600374289993776e-01  2.9419846093737617e-01  3.0036726307708417e-01  4.8810902822371832e-01  5.0268629195776715e-01  4.9275191463425849e-01  4.7860524209914751e-01  3.5920789328815639e-01  3.3744285519257095e-01  3.6260259901328623e-01  3.5127372090901304e-01  3.7828865804195400e-01  3.6499914598442529e-01  3.4387544636776135e-01  3.5237351042503440e-01  3.1653038894451435e-01  2.8944388604772447e-01  2.9489574200970498e-01  3.1041560784317818e-01  4.1889082112832465e-01  4.1949152340951751e-01  2.8203203389556902e-01  3.0505790107060149e-01  3.1020934908854908e-01  2.6518350356876857e-01  2.8635120062145492e-01  3.1917071120888496e-01  2.9204157145524923e-01  1.4100157124372037e-01  1.6374817877597206e-01  1.3526349327133608e-01  1.0288581935007214e-01  1.3552495174365115e-01  9.9550810921498964e-02  1.7275183904943611e-01  1.5724594934695260e-01  2.7404498667685386e-02  3.6420002874578881e-02  1.6687649586987686e-02  9.1702827844751519e-02  4.2307418456006213e-01  4.0053275276134792e-01  4.5754342052847452e-01  4.6737056175567621e-01  1.0149901920372337e-01  1.2649851299608825e-01  1.3341343373468090e-01  1.3876197680771388e-01  1.5253379771584910e-01  4.3901221840946270e-01  4.4264758603302096e-01  5.5628414054359920e-01  4.7166163783577020e-01  4.7754481481790712e-01  4.5118782394172757e-01  5.0217978598252511e-01  4.9743940930752101e-01  2.1535089947694883e-01  1.8483415176941259e-01  2.0119890238186175e-01  4.8984131100039477e-02  2.2179836409858007e-02  5.5442813531140320e-02  4.5854450227857363e-01  4.6669894318916710e-01  9.6522126465293998e-02  1.2425292894004950e-01  5.1769237088133724e-01  2.1172997298284701e-01  2.3838171102234679e-01  3.0794479375037220e-01  2.9468510010317100e-01  2.8315949540043417e-01  1.7602194258496984e-01  1.7277211908931439e-01  2.0583063552304742e-01  2.0498057538516223e-01  1.6933560235800582e-01  1.8532756385132404e-01  2.0715365434023297e-01  1.7677493100558042e-01  4.9361888884397370e-01  5.3619069009367737e-01  2.4851465418672125e-01  1.1878785030718336e-01  1.1225964349696936e-01  1.7022444394748909e-01  1.4141039190007568e-01  3.1352598980521222e-02  4.8417241634767204e-02  6.4477629191732388e-02  5.8180817264626139e-01  2.0927896956368272e-01  1.4252781161063902e-01  1.4269503166196734e-01  1.7641459738429158e-01  2.0379073064811631e-01  2.4800321371411266e-01  2.7678443513205081e-01  2.7692082648163024e-01  2.5699846273187510e-01  1.7855859837705412e-01  2.0576514818235056e-01  2.4284663432646672e-01  2.2668513920800332e-01  2.5878993611413548e-01  2.3418813712053496e-01  2.3730644004714063e-01  2.3303169320001113e-01  2.1645635499221264e-01  2.6868388548268840e-01  2.9087034021659214e-01  8.5005219050412542e-02  6.3563017158282442e-02  7.3488151881352964e-02  6.1409771722280723e-02  8.1025179412951245e-02  1.3705886269232490e-01  1.2689450261000876e-01  1.0679497226147705e-01  7.4812557803610277e-02  9.8880152104952046e-02  4.1143312898708165e-02  6.4316903718765653e-02  6.6005164281860457e-02  4.7819852337698546e-02  5.8984922144902564e-02  7.5731685463269666e-02  8.0844068227635249e-02  3.0615351814369191e-01  3.2542363639886795e-01  9.8064422814841873e-02  6.9392126785549957e-02  7.6208382592064444e-02  0.0000000000000000e+00  0.0000000000000000e+00  2.1419646736825892e-02  2.9132225265620437e-01  2.7017193053437499e-01  2.9464736181742862e-01  2.6380827343827212e-01  6.7362504291690287e-02  7.4980180035395971e-02  7.7935288733936861e-02  1.0130143707327985e-01  1.0048477277526731e-01  1.1632400311446284e-01  1.0280405340345415e-01  1.4004636726083683e-01  4.4639057909217669e-02  1.9774585685179244e-02  2.1291148284537747e-02  3.4615394240515679e-01  3.5131249743895621e-01  2.9162106906426405e-01  3.0835317568212561e-01  3.4927472676392776e-02  1.6726505431189191e-02  3.6761129131239426e-02  0.0000000000000000e+00  0.0000000000000000e+00  2.2848654878296858e-02  4.8995870356192003e-02  3.7735238178320191e-01  4.6909314887260395e-01  6.2486276982861869e-02  3.3210723651019541e-01  3.3250107929676564e-01  1.4290430488412936e-01  1.2080671647446968e-01  1.8473459974691447e-01  2.0768804830258195e-01  5.1710278309010027e-01  5.0171541201433190e-01  5.1727696511497590e-01  1.6659951141235165e-02  8.9777655883576390e-02  1.1659369920997101e-01  1.2998377253880425e-01  0.0000000000000000e+00  0.0000000000000000e+00  2.7587265297319842e-02  1.9575650406704757e-02  1.7994627796954726e-01  1.8992946822320000e-01  9.7969752450640657e-02  1.1283566947464503e-01  3.9082889899610818e-01  4.1517313949544016e-01  3.3214424892217065e-01  3.5532922924842036e-01  3.2082608240008464e-01  3.3384569536124548e-01  3.7836916165190210e-01  3.5181308606849404e-01  4.8654000438763845e-01  3.4209304259610648e-02  1.6156924388070273e-02  0.0000000000000000e+00  0.0000000000000000e+00  2.6475800333336914e-02  2.2096768621191448e-01  2.4402516952408840e-01  3.1544917804562041e-02  4.8241191994414546e-02  4.7213264902244201e-02  8.5643941174327928e-02  2.5888910230497397e-01  2.3260443773756842e-01  2.3590184444287454e-01  2.6046052986281049e-01  2.2456411564997736e-01  1.5322273067718056e-01  1.7135140601184076e-01  1.4949163910128641e-01  3.9037088164038131e-01  4.0663096595233683e-01  4.2556445526403897e-01  3.5250998681853452e-01  2.4995295571492529e-01  3.3166376449196788e-01  2.5808660193910260e-01  2.6617935602605708e-01  2.7564147114236631e-01  2.5388102140508606e-01  4.0802263368947567e-01  3.9059765391061291e-01  4.3672809683071234e-01  4.6137670372776279e-01  4.7237841180779239e-01  8.3106266454997524e-02  1.8555469737537539e-01  1.9094078382242449e-01  1.7259463976933426e-01  1.5641493953404745e-01  1.5687564598890685e-01  1.2914168386714664e-01  1.0756452187310320e-01  1.3574732402322359e-01  1.8086779141942379e-02  4.4350401840516133e-02  1.4648374125779787e-01  1.4862273751262861e-01  1.2945228454989352e-01  1.1589048959987067e-01  1.2595039196013239e-01  8.6061297903404402e-02  8.3090995184671959e-02  1.1617546312208371e-01  1.0594719607433897e-01  1.9714016693339542e-01  5.1302336337254573e-01  5.1278911348082601e-01  1.5474806543502390e-02  5.6718929757787317e-01  5.6812221453091594e-01  6.5877669597801627e-02  3.2260496691576851e-01  1.4555400859417639e-01  1.6754554642222069e-01  1.4992798023680418e-01  8.1237838774619098e-02  4.4028060487946774e-02  2.7349430028683547e-01  3.4197403660633452e-01  2.8191421221802770e-01  2.9741044989624693e-01  3.0395708915165109e-01  3.2548082253529004e-01  3.4076463364329262e-01  3.8454735915987054e-01  3.5438104854246405e-01  3.7038093885866830e-01  4.8816675271781212e-01  4.8776761098550947e-01  2.8976359847374711e-01  2.1623670751398719e-01  2.5407977419215627e-01  1.8547518514338934e-01  2.5016591133319249e-01  2.7558475607885125e-01  2.6292524695601682e-01  2.4122304103688563e-01  9.4010158035687477e-02  7.2828208137634950e-02  1.4011433660999906e-01  3.6164935719203928e-01  4.0296547134848765e-01  2.4370047547001013e-02  1.8956435924225995e-02  1.1605015043068817e-01  1.9623558563013535e-01  2.6237020601601480e-01  2.7686008514382171e-01  5.0945050577967521e-01  4.9108795088126150e-01  5.0947308762635790e-01  4.1922834366059314e-01  4.0933709871469187e-01  1.0716827148538263e-01  1.1330466119812470e-01  1.2822891210847809e-01  4.9438685675340863e-02  4.3483193905625683e-01  4.5321443484132418e-01  4.4281375977802845e-01  5.0141884409004545e-01  4.8455866595248148e-01  4.8473453811648587e-01  9.2329594428724404e-02  1.6270289245373060e-01  9.3159583977344251e-02  1.3701645859470379e-01  1.1939398138294136e-01  1.7865161036767975e-02  0.0000000000000000e+00  0.0000000000000000e+00  1.9141897364192462e-01  1.9246994124309394e-01  2.1710268060627980e-01  5.6569967158547596e-01  5.3545800339625682e-01  2.3300866237749776e-01  8.9063210787245051e-02  8.6345628692806417e-02  9.3769611453161900e-02  4.7869794754159062e-01  4.6027473867771723e-01  4.7364890883086724e-01  4.5577947312078049e-01  4.8186286995192706e-01  4.7322293408105170e-01  4.4749573093802925e-01  4.0871867471618811e-01  2.2693716089017366e-01  3.5479628741222746e-01  3.5997691090478134e-01  3.8275875156332198e-02  6.4240540935476556e-02  6.0469263326914366e-02  7.7651325170392638e-02  2.7302357710111264e-02  3.452566079