<?xml version="1.0"?>
<VTKFile type="UnstructuredGrid"  version="0.1"  >
<UnstructuredGrid>
<Piece  NumberOfPoints="785" NumberOfCells="1485">
<Points>
<DataArray  type="Float64"  NumberOfComponents="3"  format="ascii">1 0 0  0.9510565162951535 0.3090169943749474 0  0.8090169943749475 0.5877852522924731 0  0.5877852522924731 0.8090169943749475 0  0.3090169943749475 0.9510565162951535 0  6.123233995736766e-17 1 0  -0.3090169943749473 0.9510565162951536 0  -0.587785252292473 0.8090169943749475 0  -0.8090169943749473 0.5877852522924732 0  -0.9510565162951535 0.3090169943749475 0  -1 1.224646799147353e-16 0  -0.9510565162951538 -0.3090169943749469 0  -0.8090169943749476 -0.587785252292473 0  -0.5877852522924732 -0.8090169943749473 0  -0.3090169943749476 -0.9510565162951535 0  -1.83697019872103e-16 -1 0  0.3090169943749472 -0.9510565162951536 0  0.5877852522924729 -0.8090169943749476 0  0.8090169943749473 -0.5877852522924734 0  0.9510565162951535 -0.3090169943749476 0  0 -1.110223024625157e-16 0  0.4510565162951535 0.2298247742126793 0  -0.07919222016226819 0.5 0  0.4217401972019558 -0.2701752257873207 0  -0.4664690173352599 0.1823899734948475 0  -0.3579604780797941 -0.3579604780797938 0  0.08947756573959761 -0.564939116217821 0  0.2920115546147195 0.5731049448157398 0  -0.6379736825905938 -0.1331202236553083 0  -0.5008003933374412 0.5008003933374412 0  0.6995191145456661 -0.1107929434536306 0  0.142039521920206 0.2787682579175257 0  -0.3334887362273707 -0.6545084971874736 0  0.1245525093718384 -0.2698283057066694 0  0.394121195831843 -0.5736904951771631 0  -0.3634291792402099 -0.07798855321373677 0  -0.7398752304198022 0.1266395525571908 0  0.5513406906673669 0.5513406906673668 0  0.06772072383772594 0.7330026833223602 0  -0.1798257626464556 0.2277898049615374 0  -0.1329363554971779 -0.2250241225826161 0  0.2899847546250717 -0.01159061002844763 0  0.7178334616361693 0.1634954202353548 0  -0.185558029016192 0.7298829572732783 0  -0.5575821515891235 -0.5237174003589158 0  0.6636796672438613 -0.3700844779107332 0  -0.1473869834727682 -0.4898672660924318 0  -0.1245776731282009 -0.7865524724078699 0  -0.7047576755565585 0.3676611205918164 0  -0.7200632558821398 -0.3535872110403818 0  0.1059826075223748 -0.795065377569524 0  0.8800367553350505 0.4484011233337103 0  0.623199147317663 0.3525294878401746 0  0.5129820594521588 0.01406716385861899 0  -0.2901427146123197 0.4232796753639339 0  0.6984011233337102 -0.6984011233337104 0  -0.4012649964410931 0.6952739930058706 0  0.2729833322899929 -0.4096530452196732 0  0.3012581447838918 -0.7510272980442365 0  -0.8137027520495476 -0.05218979815199046 0  0.4331943037813432 0.6994662051624437 0  0.4096672220709169 0.4191323268585566 0  0.1043321860738427 0.5471012642541169 0  -0.1964715282981352 0.02977353470457396 0  0.2552131475805349 0.7680603542530016 0  -0.5388598112947428 -0.3431837635368604 0  -0.5797382542202413 0.03959248166636803 0  0.009584998068538048 -0.4058038127633932 0  0.1545084971874738 0.9755282581475768 0  0.4973115362790197 -0.4300662553549759 0  0.5658689724588636 -0.5882049478260758 0  0.2422046756816651 0.4131071900577793 0  0.7836508779194769 0.3146499317110243 0  -0.1545084971874736 0.9755282581475768 0  -0.06024135378981482 0.8388279256599832 0  0.8224179041086225 0.01875666381115074 0  0.9755282581475768 -0.1545084971874738 0  0.1492029128681321 0.09954782333993309 0  -0.007766320725004716 0.1830271833708655 0  0.3053451802085407 0.1526019885243211 0  -0.008583573074307321 0.3493769050054867 0  -0.2248586819964352 0.5721497532038938 0  -0.6984011233337102 0.6984011233337104 0  -0.6608599644184795 0.5232054702963955 0  -0.4379831721234783 0.3465173839916844 0  0.78947533516742 -0.2553493950128032 0  0.5377785018220788 -0.1506580215248616 0  -0.4377018126721021 -0.2194786956927773 0  0.9755282581475768 0.1545084971874737 0  -0.8135818870758709 -0.2173971224509217 0  -0.8800367553350507 -0.44840112333371 0  -0.8800367553350504 0.4484011233337104 0  0.8800367553350504 -0.4484011233337105 0  -0.6984011233337104 -0.6984011233337102 0  0.6984011233337103 0.6984011233337103 0  -0.4484011233337102 0.8800367553350505 0  -0.4484011233337104 -0.8800367553350504 0  0.1545084971874735 -0.9755282581475768 0  -0.1545084971874739 -0.9755282581475768 0  -0.9755282581475768 0.1545084971874738 0  0.4484011233337103 0.8800367553350505 0  0.4484011233337101 -0.8800367553350505 0  -0.9755282581475768 -0.1545084971874734 0  -0.3127199235709721 0.1392534573254163 0  -0.005479567850930206 -0.6874046165737091 0  0.2732479409242113 -0.1829771259830817 0  0.1418810278893715 -0.0836379635813527 0  0.004538992852202391 -0.15446060603175 0  -0.2853499925602263 -0.2239500765044786 0  0.4567744071463516 -0.7194815091863737 0  0.2407354298475123 -0.6063519260829316 0  -0.6189916801537911 0.2320956117698647 0  0.6914879155064673 0.4896037129438954 0  -0.1790968367221579 -0.6415245347002975 0  -0.3212528653011592 -0.8027825067413136 0  -0.4953997049317194 -0.6745488295647377 0  -0.3019794247314472 -0.5026245467723092 0  -0.5503379494258648 0.6488635672452867 0  -0.1526806950398258 0.3736888875971234 0  -0.3677221816356187 0.5553972409288912 0  0.4114570176646632 -0.08544454673099088 0  -0.3115221870742588 0.2814617094129646 0  -0.5055096840583726 -0.08161026592659262 0  -0.4207091841266609 0.04992126597993612 0  0.8394524656852788 -0.1204728868496304 0  -0.8092094227335564 0.2598108991006964 0  0.323275210824397 0.2948523260610789 0  -0.01235717006850368 0.6206762832191056 0  0.5723120307309651 0.1478612873198991 0  0.6584453108854001 0.0296143784812711 0  -0.1127073123157568 -0.08060902155425154 0  -0.3263472417314189 0.8127807834423398 0  -0.5693189598496932 0.3829729594944991 0  0.1787115426866188 0.6583053932958268 0  -0.2086945469431951 -0.3537063371349133 0  0.1413875674469653 -0.4006527365317505 0  -0.8825665179032465 0.06059258382501253 0  0.644423923763579 -0.2353002930398254 0  0.6873112429813564 -0.5116720902927442 0  0.5622403797493952 0.6812145165111156 0  0.4206022107082307 0.5494267599564201 0  -0.6985923484076459 -0.4957346960056245 0  -0.4275853811955493 -0.5583578671446736 0  0.1085975446525227 0.4135614629143593 0  0.8462315462026486 0.146118149748369 0  0.0718775524803872 0.8683064513691334 0  0.2157671749860278 -0.8623003278851888 0  -0.0009650574677971344 -0.2802933617576216 0  -0.6918203030037906 -0.01878988057032068 0  -0.2381679848617855 -0.08884164997446616 0  0.423770719651625 0.1052277906161352 0  -0.04008614995957274 -0.5625247949542947 0  -0.1838372862262216 0.8544504343113826 0  -0.06228883656410056 -0.8932762362039349 0  -0.2167973337515742 -0.8688044943515117 0  0.5422127886147651 -0.3110393647923049 0  -0.08715913041914175 0.08797997509234301 0  -0.4554204244795622 -0.4363932914340152 0  -0.8358691411028879 -0.3329048731086893 0  -0.696161304464804 -0.2369706844702208 0  -0.5584023614893824 -0.2239903645074836 0  0.1899841503682763 -0.7125800017390629 0  -0.7645428941125212 0.4685002778378229 0  0.06385263338978434 -0.9031496607807421 0  0.1885230304214117 0.8638639632561416 0  0.7840064636769384 -0.375682112498297 0  0.20078000365488 -0.4988085223509479 0  0.3065188648271355 -0.2963540786387833 0  0.3818589112326135 -0.4559984283196847 0  -0.3101348374984462 0.02265782905399914 0  -0.09274097508423339 -0.3512064167914866 0  -0.6034356931010622 -0.6308547114517774 0  0.5306709666442585 0.4314779253418129 0  -0.04412882481905579 0.7280335190386622 0  0.368139879099501 0.7958703882135997 0  0.5664333444162233 -0.6996425847768714 0  -0.6116455351171063 -0.4268731036572567 0  -0.4025747561849136 0.4508638281790917 0  -0.2867957698889448 0.6713445967088895 0  -0.4986338823410387 0.7454077904527141 0  -0.1197223386227034 0.6012931190607056 0  0.6019841841703942 -0.0631137624285925 0  0.4793630357317586 0.335191930278104 0  -0.4057080951926841 -0.7351100538182147 0  -0.2500487025609878 -0.7222647261547557 0  -0.5202389861383073 0.2762579513581566 0  -0.004903510438664035 -0.7983375068467664 0  -0.8677303216271283 0.1682446337113246 0  0.9632923872213652 -0.2317627457812107 0  0.6359382133354268 0.2407019555277372 0  -0.1954327480994572 0.4704960404955171 0  -0.09318292723014725 0.2871443445734201 0  0.6543968779059033 0.5953449360951739 0  0.5860085732792212 -0.4855437761655895 0  0.02433540313127336 0.477708088704549 0  0.2050327353918737 0.1915327024870737 0  0.3019600516521567 -0.5224112525625693 0  -0.4559197183044352 0.6082074424089278 0  0.9877641290737884 0.07725424859373685 0  0.8445268748549989 -0.5180931878130919 0  -0.7537090588543289 -0.6430931878130917 0  -0.8115083307004233 0.366542657984397 0  0.9877641290737884 -0.0772542485937369 0  0.3157389177020913 -0.8506306959163319 0  0.3661954416712823 -0.6720495099691162 0  -0.2110888953948772 0.1307100872489919 0  0.2771278415803478 0.671246208704549 0  0.7755166821205643 0.4221168689217691 0  0.09258535306910454 -0.6974063904331503 0  -0.5180931878130919 -0.8445268748549989 0  -0.5636233828952756 0.1431321340909777 0  0.2093668298544761 -0.3254094489515746 0  -0.7452216441755674 -0.1347434040272279 0  0.3432419291961207 0.4903131612096761 0  0.9632923872213652 0.2317627457812105 0  0.8654704589902047 0.2558653845079852 0  -0.7721646645307192 0.03531578018689553 0  -0.9877641290737884 -0.07725424859373664 0  0.3972451269157145 -0.7968729007064921 0  0.2047656419391337 0.5125131148681941 0  -0.7107486842465451 0.2689580543411794 0  -0.8747057134039039 -0.1348381340198916 0  0.9075822029513861 -0.02495856901956285 0  0.4175383422250996 0.009896499472273557 0  0.1611803648706316 0.7520641323258265 0  0.293383900196892 0.8562452162748729 0  -0.9632923872213652 -0.2317627457812101 0  0.4226327034146973 -0.3675580274712185 0  -0.6211574309532173 -0.2954782403839667 0  0.5073765864410278 0.7586347332656206 0  0.3688379632316558 0.6293192053628369 0  0.484958551257918 0.6195737597560269 0  0.08576045253602423 0.639999587219085 0  -0.8445268748549991 -0.5180931878130914 0  -0.7797212151374868 -0.4352936457408597
[...]
<PointData  Scalars="f_1261-2"> 
<DataArray  type="Float64"  Name="f_1261-2"  format="ascii">0.0000000000000000e+00  0.0000000000000000e+00  0.0000000000000000e+00  0.0000000000000000e+00  0.0000000000000000e+00  0.0000000000000000e+00  0.0000000000000000e+00  0.0000000000000000e+00  0.0000000000000000e+00  0.0000000000000000e+00  0.0000000000000000e+00  0.0000000000000000e+00  0.0000000000000000e+00  0.0000000000000000e+00  0.0000000000000000e+00  0.0000000000000000e+00  0.0000000000000000e+00  0.0000000000000000e+00  0.0000000000000000e+00  0.0000000000000000e+00  1.7096845676158501e+00  1.0941260750201487e+00  1.0910201473692587e+00  1.1000435675258793e+00  1.1026997457036640e+00  1.0929285937490825e+00  9.4550749036795678e-01  7.8532886180186012e-01  7.5938686006618428e-01  6.2887010429125800e-01  6.2563274541629121e-01  1.4582328767751858e+00  5.6999077964286970e-01  1.4755632848074260e+00  6.6015609576583612e-01  1.3566346445447619e+00  5.3146307340796262e-01  4.5975341522000490e-01  5.6775073371107732e-01  1.4867512643068246e+00  1.5274461554278171e+00  1.4883942260266108e+00  5.6227923205443797e-01  5.3091904206341745e-01  4.9629029270092218e-01  5.0818516966801941e-01  1.0761136075460520e+00  4.2603540144566676e-01  4.2577105710974683e-01  4.2086635989494237e-01  4.0926263914856703e-01  0.0000000000000000e+00  6.1528856747170968e-01  1.0789772697156637e+00  1.0777808200101533e+00  0.0000000000000000e+00  4.1880849609494597e-01  1.1204128698733131e+00  3.9767023708569404e-01  3.8449671867525942e-01  3.6984562798666493e-01  9.1515951331974210e-01  9.8432403122528023e-01  1.6026286643607921e+00  3.9827938071705904e-01  7.9691005966146067e-01  9.3004273144921668e-01  1.2917516232704478e+00  0.0000000000000000e+00  7.5413798386571518e-01  3.9359562887084965e-01  1.1474384743690369e+00  3.1705716203416218e-01  0.0000000000000000e+00  3.2708136318966746e-01  3.6540063029026310e-01  0.0000000000000000e+00  1.6204977127307336e+00  1.6205940749778338e+00  1.4093835833314892e+00  1.3950801167933031e+00  8.5344344719933685e-01  0.0000000000000000e+00  3.2321467971091938e-01  9.8059697563052850e-01  3.4889717935143710e-01  9.7650279179237254e-01  1.1280827010421097e+00  0.0000000000000000e+00  3.2358817901434273e-01  0.0000000000000000e+00  0.0000000000000000e+00  0.0000000000000000e+00  0.0000000000000000e+00  0.0000000000000000e+00  0.0000000000000000e+00  0.0000000000000000e+00  0.0000000000000000e+00  0.0000000000000000e+00  0.0000000000000000e+00  0.0000000000000000e+00  0.0000000000000000e+00  0.0000000000000000e+00  1.4050477396079326e+00  6.8058807448799152e-01  1.4266617071914445e+00  1.6364559024674787e+00  1.6425368046949334e+00  1.3728686689160075e+00  2.9909865136432923e-01  7.6334008415862920e-01  7.4719723940192351e-01  3.1355844887316192e-01  7.3229319641723101e-01  2.6968567786370301e-01  3.3876559590441763e-01  9.1439486814711568e-01  3.0182158180065494e-01  1.2985263211546416e+00  7.2933346012382205e-01  1.2688955695776385e+00  1.2689659884960092e+00  1.0822264689994849e+00  1.2602914089268973e+00  2.9782772539124025e-01  3.0053691269353300e-01  1.2309172645550661e+00  8.3831495737580231e-01  9.0687203946192652e-01  7.4954357576885144e-01  1.6579375412943496e+00  2.4231724172874464e-01  6.8271826684946668e-01  6.9152531780434556e-01  1.2846586553898209e+00  1.2560611713760057e+00  2.1986834318819881e-01  6.8487697331012143e-01  2.9524159905729369e-01  2.3088917345532592e-01  6.7135345514329703e-01  2.9109017016253863e-01  6.4593052606521795e-01  1.2525913601518062e+00  2.7795176695303964e-01  2.6075667767792687e-01  2.1491018588747490e-01  1.4986117519009081e+00  6.7397252456950041e-01  1.5387969085686730e+00  1.2355971397707985e+00  9.6426559306524395e-01  2.4887810985703260e-01  2.0738184415345337e-01  2.0278529377899085e-01  8.2209764759119441e-01  1.6683536258971732e+00  8.1575329642685812e-01  1.9986659347185143e-01  5.6637428060859174e-01  8.7977821306721238e-01  5.6481607307006776e-01  2.0185878074443012e-01  1.8310388608227979e-01  2.3108144130210087e-01  2.5189315460589534e-01  1.0228459477531979e+00  1.2512074817408645e+00  8.9909391084810986e-01  1.4563947386736904e+00  1.3680732385217165e+00  2.4627602742254770e-01  6.8950319380356306e-01  5.8498384991751584e-01  2.4602299973100569e-01  1.9714509865747609e-01  5.4417647541551506e-01  8.7538885066251282e-01  5.8498922825369459e-01  2.0008707924217339e-01  8.5296759870807581e-01  8.6876394810404889e-01  9.2340355035407662e-01  3.3206169999944535e-01  5.0748240420016766e-01  9.1090961801139747e-01  4.1978974209657238e-01  2.2029273215712847e-01  0.0000000000000000e+00  6.9844407797408181e-01  1.0878002495268175e+00  1.4701137554314254e+00  2.2195102425432350e-01  5.1376088650733409e-01  1.1541112819912622e+00  1.5036661318119637e+00  8.7555620163363990e-01  5.1457929404183578e-01  0.0000000000000000e+00  0.0000000000000000e+00  0.0000000000000000e+00  2.0403934283560754e-01  0.0000000000000000e+00  1.7899725175729359e-01  4.9729605054767823e-01  1.5445077798650551e+00  5.9463492188731337e-01  2.2344202563072857e-01  6.4308932264090368e-01  0.0000000000000000e+00  9.2752435451396886e-01  1.3268071044040544e+00  5.1762037223826540e-01  8.8615191147444183e-01  0.0000000000000000e+00  1.8672822763774277e-01  4.7758973608391364e-01  0.0000000000000000e+00  2.1633305036950290e-01  9.9060265043417983e-01  5.0934705915196554e-01  2.1527635884628316e-01  1.7633197692962294e-01  1.2737087384892940e+00  4.8852741394148103e-01  1.8690739283484342e-01  0.0000000000000000e+00  9.7300790819693950e-01  6.8772743086012178e-01  1.7245617704002481e-01  5.8773431317709834e-01  4.5159340217893063e-01  7.7848264296497105e-01  0.0000000000000000e+00  2.0372410257790402e-01  0.0000000000000000e+00  2.0448216698660637e-01  1.6015285333711686e+00  8.9301905698799100e-01  8.7818325133000352e-01  1.1508108241640929e+00  2.1488340756526603e-01  1.2486671605153781e+00  1.2679878018415143e+00  1.6120723516390012e+00  1.6845877839580468e+00  1.6729062356248767e+00  1.5830816751044610e+00  1.5271232232114365e+00  7.5354824389880581e-01  8.7402081027894318e-01  1.3219313117643716e+00  1.0038323025863103e+00  1.6770559574051294e-01  7.6896719615244846e-01  2.0373570606789745e-01  4.3376229469733046e-01  0.0000000000000000e+00  7.7254887287401341e-01  4.7292304246027439e-01  4.8756927976300712e-01  1.1113941264422735e+00  1.2196368005633440e+00  1.4043885366729070e+00  1.5938683984496558e+00  1.5175519899465306e+00  6.1538730547936993e-01  4.5334853209710502e-01  6.6131166905841632e-01  1.3927370800617644e+00  1.8143417049315544e-01  1.1083662665392680e+00  2.1238862038634915e-01  2.0348621663796984e-01  3.8954770477647283e-01  5.2112634614260633e-01  1.1106966743816307e+00  1.2775394872787511e+00  1.5071599739258015e+00  1.4219100761990715e+00  1.5470720606965456e+00  1.5152485905422923e+00  0.0000000000000000e+00  1.6874161234886145e-01  1.9119499969221326e-01  4.8598859165850355e-01  1.0831594656310473e+00  1.6861172348361779e+00  4.8984230639864113e-01  5.4007749613671252e-01  0.0000000000000000e+00  0.0000000000000000e+00  1.0564651824839204e+00  1.5266993995576300e-01  0.0000000000000000e+00  4.2243321399813161e-01  1.2733280839592660e+00  9.3416189592084409e-01  2.0334486719509398e-01  7.8439435859295725e-01  1.0997029074519715e+00  1.0929013269710046e+00  7.8549972113207756e-01  9.9086234816973873e-01  1.2747773307640218e+00  4.1972164763751224e-01  1.7977433806455476e-01  4.3526826726495599e-01  1.4170775192148459e+00  2.0220038977634272e-01  1.4837597656525220e-01  3.8630581368602007e-01  5.0748972258573799e-01  1.2537121099660458e+00  1.6856511676168384e+00  0.0000000000000000e+00  9.1561022612359833e-01  5.5339512014199388e-01  0.0000000000000000e+00  4.2009067863912419e-01  4.9911391564947594e-01  4.2366609080467821e-01  9.1377742766205361e-01  7.1127655728521821e-01  6.7156394813090925e-01  1.0869878317434603e+00  1.2305744878543809e+00  1.5506442283129279e-01  3.7902818436687591e-01  7.1961158565120142e-01  1.0965384646775396e+00  0.0000000000000000e+00  1.3988440471355195e+00  6.1763144500970257e-01  6.2703102643596287e-01  1.1847397686832799e+00  1.2040490599398974e+00  1.4363282253455030e+00  1.0797308356199855e+00  1.3733387141166334e-01  4.3130643285997688e-01  1.7008527897053063e-01  1.7422561661019229e-01  3.7334821355801817e-01  1.3786768580345392e+00  0.0000000000000000e+00  5.8047418949722240e-01  7.0145036615173328e-01  1.5465575013410027e-01  6.9334697746094798e-01  0.0000000000000000e+00  0.0000000000000000e+00  0.0000000000000000e+00  0.0000000000000000e+00  0.0000000000000000e+00  0.0000000000000000e+00  0.0000000000000000e+00  0.0000000000000000e+00  0.0000000000000000e+00  0.0000000000000000e+00  0.0000000000000000e+00  0.0000000000000000e+00  0.0000000000000000e+00  0.0000000000000000e+00  0.0000000000000000e+00  0.0000000000000000e+00  0.0000000000000000e+00  0.0000000000000000e+00  0.0000000000000000e+00  0.0000000000000000e+00  2.3907897880219867e-01  1.4203271567741524e-01  1.0312221266519437e+00  1.1472317273922215e+00  1.0608569181628118e+00  7.6282921827028816e-01  8.0573199375486382e-01  5.4656246879946191e-01  6.0866588250535369e-01  1.2825887124435751e+00  1.0713397378986320e+00  9.1786344295926103e-01  1.6229461810972203e+00  1.6886502987079128e+00  1.6545199140446737e-01  1.2809298044101145e+00  1.2636707324015253e+00  1.4104046209466703e+00  3.8114693250697051e-01  1.3867747746429879e+00  9.9536646954985686e-01  1.6575956912294901e-01  3.3581895993534200e-01  3.9144819846645329e-01  1.2252194657742911e-01  4.3213143778757768e-01  1.3910691234953338e+00  8.2753941273723641e-01  1.5514432014361081e+00  1.4073191658712808e-01  9.8058949717933885e-01  1.3423290257694948e-01  1.5713530731564695e-01  3.9811111625460410e-01  4.1306520688811660e-01  1.5202032152144149e+00  1.2925806108515447e+00  6.4395145830004086e-01  9.9505565871137880e-01  7.3303914758862265e-01  7.1741773079369731e-01  6.5638621811240461e-01  9.3090885563570847e-01  8.3064184513129502e-01  1.6051971361857739e-01  1.5566130130083367e+00  7.7572806281349338e-01  1.5102417085810588e-01  2.1409027942076561e-01  1.4015837361822456e+00  7.4574508717910981e-01  5.9044350981334881e-01  6.7380733321971309e-01  3.6974699360257718e-01  4.0209237696260786e-01  3.5828102558247643e-01  3.5730100358043376e-01  4.4507635891304992e-01  3.5026108168779974e-01  1.6358434956702564e-01  5.5506436112917079e-01  1.1460173982323512e+00  1.3733377980341095e+00  9.2580857710365871e-01  3.5331480869970672e-01  5.5867581443090486e-01  1.6899954069090068e+00  4.6979883428874536e-01  6.3643553404053499e-01  5.2668899251597567e-01  3.7601653045623973e-01  9.9878808553013598e-01  9.0384555620454154e-01  1.3172165671409031e+00  8.9341309377476996e-01  1.3537965161215317e+00  1.5338160335957007e+00  1.2480781843094872e+00  1.6156722096478455e+00  7.2516940981201239e-01  3.1962627021651008e-01  9.5370493875628937e-01  6.8128400925318178e-01  8.0490788134401114e-01  1.5253849883579024e-01  3.1975374212098412e-01  1.3810551722391375e+00  1.1862913827084862e+00  5.4168552728744779e-01  8.5083039653795500e-01  1.1265823276198441e+00  6.7655051275860223e-01  1.3188113797173143e-01  1.3662729540539817e+00  1.1755187430508593e+00  1.0663744087480806e+00  1.3552251271357713e-01  6.6099288260946754e-01  1.5919392765384903e+00  5.7561723146421084e-01  8.3581068710866124e-01  6.4293274899256170e-01  5.4925377570238010e-01  1.4483273675564426e-01  1.1161390892627809e+00  1.3159689709197337e+00  1.5763912311326159e-01  1.5092524946404035e-01  1.9768776697978316e-01  1.5393546179513797e+00  1.5281320858695684e+00  9.5434155434725632e-01  1.3255850805038952e-01  1.3080256637018867e-01  3.4530782945059874e-01  7.7335604612894360e-01  1.3683653036129459e+00  1.2187562907310321e+00  1.2407897332009126e+00  1.1962006243062835e+00  1.3546090699344551e-01  1.2780834861567875e-01  1.6085562682974448e+00  7.2329766660675787e-01  5.7400907964989167e-01  3.7721999468702661e-01  1.0693230320659274e-01  3.2046049320267400e-01  7.6596781781475975e-01  1.4195928792082324e-01  1.1175109841395878e+00  8.2607632089046468e-01  9.6503911143521215e-01  1.0750048955203142e+00  4.2631222053498091e-01  4.4618087664166950e-01  5.2483477152150526e-01  3.8389009865170298e-01  4.6201587233141034e-01  1.3227203644384453e-01  3.1737473327583127e-01  1.0999217385987727e-01  3.6884809304870336e-01  3.9335174653703553e-01  1.0286031957958723e-01  9.3572215616067822e-01  1.4505699056249195e+00  5.3793058743080746e-01  9.6496833283983063e-02  1.1524648959950325e+00  7.9692808648642399e-01  6.6885288735347037e-01  1.2577228842413490e-01  6.5623775688292885e-01  1.5449731388741637e+00  2.6633265644165505e-01  1.2480023816731889e-01  9.9947702274801778e-02  7.6040295509882605e-01  3.2809759438956981e-01  1.3816641114114763e+00  1.4026312357759416e+00  8.7646032293748910e-01  3.3586936373681126e-01  3.7879105823949638e-01  1.4695811598196629e+00  7.3119619061586139e-01  7.4766125129385086e-01  8.4821243265804436e-01  9.5653221901084851e-01  4.4489160222364571e-01  7.5783830704505217e-01  1.0602479900262246e-01  1.3837523362373197e-01  1.1720907813262860e+00  1.3376018986936797e+00  1.4315053751925280e+00  1.6443928555151777e+00  1.6503060516797663e+00  1.1277284849472459e-01  1.3357836187341671e-01  3.3867977874933886e-01  9.8410252418577565e-02  3.4614232457177674e-01  1.1696063940083581e-01  1.2556702269704159e-01  8.1219398752072391e-01  1.6505869710216265e+00  1.4828740635408078e-01  1.4197691919805847e-01  8.3032863809591961e-01  6.0798224961001834e-01  8.1958859221791991e-01  1.2000720031443199e+00  1.0281187506858451e+00  8.5884223582666053e-01  2.0384099847456202e-01  1.6907194242293149e+00  7.2381971657776467e-01  3.5391782913447556e-01  1.4054527119425061e-01  1.2955935052246137e-01  1.0634766030182312e+00  1.5813108542240204e+00  1.3482029169383263e+00  3.1137665458401625e-01  1.2854419601873346e+00  4.9630167779417717e-01  4.5118263996711838e-01  6.6756989738998296e-01  4.6681961864188937e-01  4.4139674145700869e-01  7.6422697418677188e-01  9.7803063575018001e-01  1.0306137082939721e+00  8.2250872843464704e-02  1.3534785161842680e-01  1.1819037856255299e+00  8.5559058818910605e-01  1.4290422374039364e+00  1.0011825406848358e+00  3.3487125969362413e-01  6.4437422194601013e-01  4.9405857784969898e-01  2.7168915157423401e-01  8.6056510383405574e-02  3.0146005516899971e-01  1.1880013778058582e+00  4.2343945390264570e-01  1.4533496890478448e-01  1.3035714098383331e+00  1.4004874882038165e-01  4.3481910396348517e-01  2.8487969730294405e-01  1.1107969389609297e-01  5.8866377842112971e-01  7.1085492865372080e-01  1.1048396778289324e+00  2.8341398231442849e-01  2.6711792160006265e-01  1.3729936005315846e-01  2.9809530174156823e-01  3.8624410212677346e-01  2.6964480336229452e-01  5.4973663009128837e-01  1.5768558242932884e+00  3.6192103297245698e-01  1.3653636815739090e-01  1.3364005989639849e+00  1.3915781293341284e-01  1.5869320049203199e+00  1.1457138426514295e+00  1.2068350412670386e+00  1.1980076446716841e-01  8.0582795938270535e-01  3.6537103128887721e-01  1.0038030790062107e+00  9.7627335674341575e-01  1.2312805448303053e-01  1.1402791266499734e+00  8.9033085638132692e-01  1.5802866162197618e-01  6.5920636185960169e-01  1.6661140715739735e+00  1.3465929197198674e+00  1.1503455479413521e-01  1.5122518382892280e+00  1.0614145495554338e-01  6.6723145594210131e-01  1.1745551705300867e+00  1.6769367968101159e+00  2.6779311862743604e-01  6.0064687857427745e-01  1.1895983462888376e-01  4.6098791985516047e-01  4.3194238864240625e-01  2.5189350272143840e-01  7.7101263298719219e-02  2.8111747795750230e-01  2.9569124124754714e-01  1.1669420002475239e+00  1.4435090015502012e+00  4.2368096166934444e-01  5.6744722322835628e-01  6.7660135111689967e-01  1.0427379255389237e+00  6.1893089816506153e-01  5.0238021599648097e-01  2.7051611175190260e-01  1.2581245797250584e-01  1.6042143069301233e+00  2.1809669558707045e-01  1.4680629624139068e+00  9.4282157425035229e-01  1.6585643031266357e+00  9.7303791759653391e-01  7.6436110140031377e-01  8.1115170246714163e-01  5.5064395694945467e-01  1.2973427527300324e-01  9.5312722503597583e-02  2.8080807981372957e-01  9.8672045223153010e-02  6.6028380861668878e-01  8.8127813223835583e-01  1.0166450804477425e+00  9.2858451332856884e-01  7.9156527547323496e-01  8.7140869541930743e-01  0.0000000000000000e+00  2.3686566868296041e-01  2.3826082243781666e-01  2.9152595551788824e-01  7.6067685993271950e-01  1.2955280275424769e-01  1.0084571369170838e+00  2.9970456806082602e-01  2.9880674020502013e-01  4.5303719614235194e-01  1.0009543300920305e+00  4.6489817101557551e-01  5.3660384685637952e-01  9.5966460783033991e-01  1.0546199914712409e+00  2.5536154298699343e-01  2.3988235049259279e-01  1.5444144236442314e+00  1.5731311925524649e+00  1.4701737533943127e+00  1.5556640148164551e+00  9.9049209109141845e-01  7.8901558068098801e-02  1.5908233585650171e+00  1.6441128130226037e+00  1.6597246443915663e+00  1.6290694098403051e+00  4.0410265057907291e-01  9.8970807981573905e-01  1.0847580698723275e-01  5.9209494934355611e-01  1.3804027703370445e+00  2.5200356378109579e-01  2.6468586701496222e-01  8.0998298899478394e-01  8.6123959283117690e-01  8.7915979839574143e-01  3.0188731533135688e-01  6.2461525471008617e-01  1.0613321647503089e+00  1.2150231960843756e+00  1.0332506352573343e+00  9.6087476310045650e-01  5.6490764714758046e-01  7.9338856095704333e-02  7.7945696320529834e-01  3.8964309042512801e-01  2.3803732776533448e-01  3.5039185482630331e-01  1.1546763413805142e-01  1.3862023856263288e+00  1.4984019067107863e+00  0.0000000000000000e+00  1.0470956406587130e-01  1.2225963138697367e+00  9.6260057370864993e-01  4.0037990466356460e-01  1.5608214284908994e+00  6.5050155871915238e-01  1.4589764622403467e+00  5.6404562990126950e-01  4.7103224137934968e-01  4.8335658027820294e-01  1.5047760984012128e+00  8.2440755452589087e-01  1.4777545811726969e+00  8.6417651321787403e-01  5.3174292198685091e-01  5.1519035186200290e-01  4.5222411867737183e-01  1.4825516676411816e+00  2.9340106871364013e-01  7.7091942804205971e-01  5.6110242629978924e-01  1.6521236098157952e+00  5.9017175566891111e-01  1.6947697224649789e+00  1.4135290683453294e+00  7.1717788909260938e-01  6.6374923678169362e-01  1.4845098962809371e+00  7.9255980162203893e-02  7.7617337627072946e-01  1.5566969205277352e+00  1.6277428536841971e+00  4.6666962303424497e-01  1.2923460033653597e-01  1.1927978631601064e+00  2.7528304407676418e-01  1.2821120451376642e+00  2.5905529544104605e-01  6.6704643089240945e-01  7.4691174294737250e-01  3.0246543516046137e-01  2.9563205145105942e-01  1.5298507003418920e+00  2.7698855249830340e-01  2.5066546975316512e-01  1.0035017005969198e-01  8.7768779152054874e-02  1.5503171639017839e+00  0.0000000000000000e+00  1.2131534602296281e+00  6.5138344055901043e-01  1.5285117044964244e-01  1.3639092079184389e+00  </DataArray> 
</PointData> 
</Piece>
</UnstructuredGrid>
</VTKFile>