<?xml version="1.0"?>
<VTKFile type="UnstructuredGrid"  version="0.1"  >
<UnstructuredGrid>
<Piece  NumberOfPoints="4416" NumberOfCells="8583">
<Points>
<DataArray  type="Float64"  NumberOfComponents="3"  format="ascii">0.8086541599380677 -0.2048763455233037 0  0.7918113862977368 -0.196559194867078 0  0.8149785941601437 -0.1896689371149581 0  0.7914858187768374 -0.1777776074813666 0  0.7877255216983492 -0.1533892286670211 0  0.8069338303502935 -0.1686538422919474 0  0.899022479595791 0.184304626635858 0  0.8862858957216577 0.1766594759701586 0  0.9016882443091289 0.1699501980853346 0  0.7616059773365476 0.3829773753860564 0  0.7658507749308791 0.3677601052762543 0  0.7492922355656014 0.3783917785660174 0  0.8219216351054168 0.3391921289599656 0  0.8057831535880789 0.3421843263224907 0  0.8119355413089588 0.3303496391145325 0  0.7220264744090197 0.5106119967472164 0  0.7118244053482322 0.5006472799438278 0  0.7327148582315924 0.5025004234449463 0  0.7183233223908293 0.4197070045010598 0  0.7057584358496306 0.4349324541631816 0  0.726969503648605 0.4399632025911126 0  0.4948809589783702 -0.7587214418314938 0  0.496000103103479 -0.7738609514314374 0  0.5074423606748083 -0.7658265328827868 0  0.305525380277092 -0.7064747437281449 0  0.3242100747187151 -0.7108177388656757 0  0.3171785798323093 -0.6913478703475279 0  0.4488738863096119 -0.6684512714941455 0  0.4436916993000088 -0.6519953491285186 0  0.4591226074127259 -0.6551106812039649 0  0.5078173218097225 -0.3783715883926873 0  0.5307892766164537 -0.3869257534582856 0  0.5133592726395738 -0.3911729153247172 0  0.6561158690357738 -0.1968942793676337 0  0.6457765788067777 -0.2093472640635398 0  0.6396359273363263 -0.1967959253540099 0  0.6889502491783563 0.07736416214077002 0  0.6671582276918092 0.07660977837604978 0  0.6753490275496411 0.08895734935043197 0  0.687616450849042 0.02325007349824202 0  0.6712990797282571 0.008824149462458405 0  0.6725728959978043 0.02440223847291031 0  0.7169692747045605 -0.1057923845585227 0  0.7112001141028529 -0.0878833184588948 0  0.7254935728113139 -0.09316263743262652 0  0.4901028402188922 -0.1326423951134703 0  0.4815761299901051 -0.1176906656982198 0  0.4734209463363759 -0.1323442188692417 0  0.4803499583063567 -0.3770557387445882 0  0.4748287702150885 -0.3923209366018173 0  0.4679539368639857 -0.3693813222876973 0  0.8858605506329501 0.04738074419282674 0  0.905286961275223 0.04850008148780963 0  0.8951741028657045 0.03871552820532433 0  0.7231334942947516 -0.3370016299284245 0  0.7364734465641689 -0.3532149783708192 0  0.7187381914250279 -0.3516521066648289 0  0.6372409325910694 -0.3190952936354615 0  0.6249735691563155 -0.3068124543837845 0  0.6229608057093182 -0.3278552369158761 0  0.9094424879649575 0.1575797645502882 0  0.8893616474035989 0.1621264567010903 0  0.8968511734235574 0.144656849416264 0  0.6843826752355642 0.2557281123460899 0  0.6863711605470992 0.2323238674704284 0  0.6988559565081479 0.2451712039685951 0  0.6077570018890249 -0.5902214901230238 0  0.5866761278715384 -0.5971138466426643 0  0.5917830673075289 -0.5770488417915153 0  0.5835151034696938 -0.6553145226126417 0  0.6012417315719338 -0.6385630945056741 0  0.6013599839300979 -0.6564432452254697 0  0.8926779853137201 0.001262462309081169 0  0.8723123703894097 -0.007708744508678273 0  0.8761740029538458 0.01112661322548586 0  0.5891582587838761 -0.03907081304593805 0  0.5865973446499904 -0.05440619937688938 0  0.57379572452394 -0.03593842880853319 0  0.4182940788323986 -0.6209785966345436 0  0.4240417305924132 -0.6062172653809482 0  0.4095860178904412 -0.6073829991665254 0  0.3520883826751479 -0.596848016048694 0  0.3641516027186824 -0.5866354982165836 0  0.3609044197925572 -0.6097160011064797 0  0.1446577576694488 -0.4601058378212226 0  0.1509948197442019 -0.4745489693549051 0  0.1389361877994288 -0.4806466395259887 0  0.4351752040421797 0.1418387703811541 0  0.4239012105807405 0.1553984738062708 0  0.4187338624903298 0.1360383157437807 0  0.2634173602544012 0.04757607362056596 0  0.2619685351442633 0.03368958928835625 0  0.2768227066253919 0.04754308770016498 0  0.1295992343753243 -0.06800391727833612 0  0.1302708542622769 -0.04986712015831914 0  0.1458942031950296 -0.06702505250834456 0  0.5702538915569604 -0.5440667582386185 0  0.5562107941347688 -0.5480775290225948 0  0.5728828268081656 -0.5576925889962792 0  0.5888516064775238 -0.3283453996056626 0  0.575606044142866 -0.3120947093795647 0  0.5735190838695526 -0.3281491864609066 0  0.4119642880149134 0.0905133690417696 0  0.4165591401855071 0.1042341312423811 0  0.4258517272561795 0.08781211093361772 0  0.700435175365253 0.1904195782392997 0  0.6853546659733943 0.1943047116283401 0  0.6964167548226444 0.2054175785628229 0  0.7788014208742087 -0.4654596820185557 0  0.7889566762626343 -0.4874253993935623 0  0.7962834792938428 -0.4659797064031662 0  0.2488703343281347 -0.3431616876654588 0  0.2457653357558031 -0.3565599181584344 0  0.2351339992895339 -0.3396087218544856 0  -0.02388501001495511 -0.3761886025244691 0  -0.02520830685259722 -0.3596219854914644 0  -0.009841466502368206 -0.3761271449225015 0  0.4769500502411276 0.4601382362290277 0  0.4573774645635899 0.450383239819921 0  0.4718628551966688 0.4439591268524888 0  0.4917794376711814 -0.1972555978082625 0  0.505928721504354 -0.2025986265763232 0  0.4998720686971186 -0.185943852427172 0  -0.08606257651973936 -0.05462704524659229 0  -0.1012937921881515 -0.05155163091806127 0  -0.08033031954538288 -0.04259436282840512 0  -0.008757415203316868 -0.3572614604688491 0  0.1390106270926973 -0.2166637149856598 0  0.162488089572871 -0.2150473491996736 0  0.1501399086167546 -0.2070033694413123 0  0.3546302237366451 0.08822542791995883 0  0.339187523772329 0.09302479289057097 0  0.339490117720677 0.1058779006803005 0  0.4641641243214657 0.1404965408204731 0  0.4501230861403721 0.1509604759903427 0  0.4640449933112752 0.1549891404683678 0  0.9375791472553948 -0.1864960877863716 0  0.9321078918132163 -0.1627389896590795 0  0.9230636988095106 -0.1820014414884678 0  0.9035273404442838 0.02912117334123241 0  0.9127372095510694 0.03805425122008746 0  0.1821993808568187 -0.432828855237157 0  0.1707650651434532 -0.451516588230124 0  0.1696792455571891 -0.4380102376108829 0  0.2818414833765505 -0.7146899593557918 0  0.2889776146008706 -0.6970158068444517 0  0.2931232449816122 -0.7089673717181497 0  0.9137222488843366 -0.2576963259120224 0  0.9057015027734866 -0.2811889513273181 0  0.8937346912723251 -0.2678831177882813 0  0.9103338677751003 -0.1737037616462621 0  0.9166055249651663 -0.1957561526640836 0  0.8957223199904315 -0.1835097671773969 0  0.6153439160541319 0.1468091775802926 0  0.6210361403193074 0.1618572122575944 0  0.6055961342663212 0.1616820449445886 0  0.4284127007223792 0.2073334739376188 0  0.4344423446702795 0.1929709718624723 0  0.441384127835113 0.2088124342236446 0  0.3733320192714619 -0.1535288184028485 0  0.3588657850270981 -0.1693709536260647 0  0.3523760376646541 -0.1489188623019877 0  0.5957916768250641 -0.2405639016829338 0  0.5892094059677346 -0.2571167411237241 0  0.5822754038194597 -0.2447742742864205 0  0.640944308409664 -0.6468990898626902 0  0.6286780359646438 -0.6530178084813402 0  0.6304944656323788 -0.638027734658456 0  0.6943792542447561 -0.4535185031614564 0  0.6939886039530548 -0.4317701590254521 0  0.7085544889647809 -0.442386202779482 0  0.3395295034151978 0.1997868953610595 0  0.332860933289504 0.2141603126880007 0  0.3237444551330791 0.1972480913994478 0  -0.02445926670603867 -0.3985962696400789 0  -0.01067629568164947 -0.3901459876589111 0  0.9328638936949143 0.2834904861158259 0  0.923892162783964 0.2618114543841253 0  0.9424026863443954 0.2668469537148758 0  0.2532792555527151 -0.08270818181828798 0  0.2527473256199652 -0.06881257645970822 0  0.2398420033294085 -0.08314168283965098 0  0.01580864582429657 -0.03602771429562236 0  -0.001090478477742312 -0.04437564348035689 0  0.02207713322976974 -0.05353969486288011 0  0.3549555819878234 -0.3898461680085714 0  0.3433037771540922 -0.3991515624343491 0  0.3453417749947163 -0.3787967693442117 0  0.542551025954475 -0.4123381823102418 0  0.5632508692399043 -0.4164497894042732 0  0.5548627644635375 -0.4045172391839038 0  0.6809334339991457 -0.5117286016482265 0  0.6927611435305472 -0.5028422649107153 0  0.6902811165642302 -0.5232596187934515 0  0.5431713356932504 -0.67212611660666 0  0.5637951900173268 -0.667321633792234 0  0.5513272614973983 -0.6604689648074004 0  0.8132211828214213 0.18985155067617 0  0.7945745271426574 0.1771442148832167 0  0.7886564668281072 0.1910604939362664 0  0.8343988857393589 0.03630759300691505 0  0.8343077824237692 0.05306941785312328 0  0.8244235962369153 0.04463453564755907 0  0.7524299251586728 -0.3276603176381307 0  0.7597291191612502 -0.3080497367078019 0  0.7674874378582565 -0.3193707269833982 0  0.7918776421923003 -0.3432746103646906 0  0.773676601060287 -0.3316202407975498 0  0.7956292529451428 -0.3313181289173188 0  0.5160009804398674 0.1620189138114942 0  0.5025007681083302 0.1680326495180372 0  0.5192955234396179 0.1756717009175724 0  0.5637580283015247 0.1661949965052646 0  0.5772230400874727 0.1737447811213305 0  0.5684034086521395 0.1509466375931399 0  0.34248233031568 0.3329493616732829 0  0.3464069811949507 0.3104407618361972 0  0.3294219393598248 0.3154183666160784 0  0.2789075721072011 0.008698336678611106 0  0.2883735492429315 -0.01037885296491499 0  0.2744984523843805 -0.005376512679016969 0  0.2192430024257987 -0.2196077145036049 0  0.2265157422712907 -0.241728852399874 0  0.2394381050046847 -0.2278431160781132 0  0.5388981429225672 0.08071540287252696 0  0.5518059262219328 0.09246735402205405 0  0.5533616541348916 0.07779399388454947 0  0.3879717717235426 -0.04591948522392839 0  0.3859331780043471 -0.06944056903557713 0  0.3694884519661793 -0.05616640438700998 0  0.7248148686638546 0.0123384709736764 0  0.7245389824530868 -0.007554306157571342 0  0.7100062818456092 -0.0007375141543544406 0  0.7665595508414519 0.0514142974162754
[...]
<PointData  Scalars="f_3411-2"> 
<DataArray  type="Float64"  Name="f_3411-2"  format="ascii">1.5509351342191044e-01  1.7321461470054608e-01  1.5246751363551575e-01  1.7791768282037729e-01  1.8660005172606228e-01  1.6468188280823765e-01  7.4358328591511952e-02  8.7583772714170241e-02  7.4501218436991687e-02  1.3706356771268946e-01  1.3984699706617149e-01  1.4990777101836186e-01  1.0153515794501793e-01  1.1473467600704139e-01  1.1357138335206858e-01  1.0611280795190817e-01  1.1973169319698682e-01  1.0212088858384027e-01  1.5727679939510225e-01  1.6014350462344024e-01  1.3975365815212581e-01  8.5609579141728898e-02  7.2991354044770848e-02  7.3438822893568081e-02  2.1953167492907893e-01  2.0793918984548992e-01  2.2873767872995251e-01  1.8388600756902351e-01  2.0043691752965198e-01  1.8910204697452995e-01  3.5780368172841059e-01  3.3409677967552603e-01  3.4549914564567052e-01  3.0550419182582511e-01  3.1172926442504534e-01  3.2154532017139398e-01  2.9711866653523739e-01  3.1921009871061418e-01  3.0935306862831613e-01  3.0248789671943555e-01  3.1937364768402116e-01  3.1764605646423544e-01  2.6510260882715109e-01  2.7343487334829841e-01  2.5836343171943926e-01  4.7975233248705290e-01  4.9073439145395370e-01  4.9453369573668593e-01  3.8041115775353063e-01  3.7512386704847717e-01  3.9472955522703063e-01  1.0340544963718799e-01  8.4898661059594205e-02  9.4925909142744999e-02  1.9131786808812676e-01  1.7232513974463090e-01  1.8887139985383866e-01  2.7742975684426618e-01  2.9412363816919340e-01  2.8625405485769978e-01  6.9412351681629403e-02  8.7293589929446733e-02  8.3113776386826391e-02  2.5917681275726223e-01  2.6530478588918488e-01  2.4905551016605337e-01  1.4223077113118254e-01  1.5219706338042149e-01  1.6260210157862995e-01  1.1274185382489124e-01  1.1311280239400225e-01  1.0045096853698560e-01  9.8146613032155217e-02  1.1769676100466109e-01  1.1389460508897147e-01  4.0040045199995250e-01  4.0170959439818887e-01  4.1566068788362004e-01  2.4081772826616080e-01  2.4982581885098029e-01  2.5713000882065945e-01  2.9745698261442938e-01  2.9996706198533379e-01  2.8160983315841853e-01  5.0299001853355474e-01  4.8870507153085629e-01  4.8647887512451465e-01  5.2488946216565291e-01  5.3027564653133408e-01  5.3998963875350048e-01  6.6621820431449852e-01  6.6823995641990108e-01  6.5814886129534478e-01  7.2263812258502635e-01  7.2485481483623537e-01  7.1766940063574591e-01  2.0093657657076405e-01  2.0830310277094452e-01  1.8954920765195371e-01  3.1649259449321937e-01  3.3613263659980203e-01  3.3005237827123723e-01  5.5558469572485725e-01  5.4915917855354102e-01  5.4457957497977560e-01  2.6400935461834568e-01  2.7769736000879353e-01  2.6376211399698107e-01  8.4219701666853275e-02  6.5299702185394146e-02  6.9765332870862257e-02  5.5382811704393264e-01  5.4606575649103239e-01  5.6273323333250813e-01  5.9157336391228132e-01  6.0404531110200310e-01  5.9211999540442262e-01  3.2809351272423298e-01  3.4914124277391811e-01  3.4306572116865258e-01  4.5898441461507966e-01  4.4457280134554422e-01  4.5565772723258890e-01  7.3544089997723527e-01  7.3244666243507028e-01  7.3782246323979861e-01  6.0635536899025377e-01  6.7212868578398910e-01  6.6512370704526580e-01  6.7298486927395751e-01  6.0040889879494641e-01  6.1050099839270322e-01  6.0764942552803192e-01  5.0058430136121612e-01  5.0973082570113648e-01  4.9660878470829295e-01  3.8937113012598806e-02  4.7877119965722012e-02  5.2838050794897035e-02  8.7302257813146822e-02  7.8276775428791454e-02  5.1437410372947079e-01  5.0261026019628896e-01  5.1418091200748228e-01  2.2102819127492196e-01  2.3491976017537614e-01  2.2208092842591154e-01  4.5015432078599329e-02  4.5930162708708741e-02  6.0053521720840650e-02  6.5889683110566047e-02  5.6076159801673270e-02  7.7590913001294684e-02  3.5845970529791338e-01  3.4921286289846348e-01  3.6429238136899950e-01  5.0871845268529092e-01  5.0916004901673584e-01  4.9757100938330789e-01  5.7047882675005257e-01  5.7595507297992943e-01  5.8726466396403665e-01  3.4850687832980132e-01  3.4813784949829057e-01  3.5939434869567760e-01  8.1065662484109222e-02  8.4996264565417173e-02  9.3923669180565023e-02  1.5984737228104731e-01  1.7177954740384233e-01  1.5392328941283651e-01  5.7822450230828626e-01  5.7675436883002829e-01  5.8989878327061951e-01  5.7394821323140111e-01  5.8108982953782795e-01  2.1772947967375271e-02  3.4998781611463345e-02  1.7566874209928935e-02  6.6693277410157370e-01  6.6946211548867174e-01  6.7412957940842222e-01  7.4573121029865141e-01  7.4525367362081463e-01  7.4369825393839273e-01  4.6152207707636922e-01  4.6219276576953516e-01  4.7512070112313953e-01  3.0908059468897886e-01  2.8977852839560908e-01  3.0387020581243540e-01  1.3776039060749798e-01  1.3362042525083465e-01  1.2366299500806290e-01  1.2563768240279422e-01  1.1652026684666426e-01  1.2933647502314433e-01  1.5413312229748061e-01  1.7500263932951715e-01  1.7760927610571281e-01  1.5405585273694156e-01  1.5326175802324843e-01  1.6350064454509128e-01  1.6845899736497974e-01  1.6937067257609612e-01  1.5786825695132786e-01  1.2669578827199993e-01  1.4757626252212977e-01  1.2785464756696846e-01  4.4854368883293599e-01  4.5902096168593309e-01  4.4145069569025275e-01  4.0305949173903266e-01  3.8823142559264162e-01  4.0272938162617516e-01  5.0716640443597727e-01  5.1830941396528862e-01  5.2625912538312170e-01  6.5935489485100951e-01  6.5354253747353674e-01  6.6205530061836759e-01  6.3952714905911900e-01  6.2525662206844790e-01  6.2569737142872706e-01  4.4468814440622462e-01  4.3065234607033698e-01  4.3125384095895031e-01  5.8082367433327076e-01  5.7976519815761340e-01  5.9409132340944093e-01  2.6500145948900283e-01  2.6530110092209641e-01  2.8010217732278803e-01  2.2103696120238658e-01  2.3631930655694944e-01  2.1874715678883047e-01  5.3228742362907278e-01  5.3530870528167929e-01  5.4315771124390277e-01  5.7810444534532901e-01  5.6701038372816792e-01  5.8538441909799588e-01  4.8229115664037842e-01  4.9032639548164475e-01  4.9715358318128094e-01  6.8898470327516970e-01  6.7888810702382862e-01  6.8683006903598420e-01  6.7747485538327756e-01  6.4851920438326427e-01  6.4915923432761768e-01  6.6039970861441866e-01  6.1575732795760518e-01  6.2941581313867712e-01  6.1987808007165512e-01  4.8218692505249305e-01  4.8760052929193920e-01  4.7466769061424208e-01  4.7164295863089856e-01  4.6030100830801629e-01  4.5267352261663468e-01  1.3593172704259032e-01  1.5471816935928701e-01  1.3773628574212884e-01  1.3645025698421481e-01  1.5380293290706901e-01  1.4716508514726595e-01  1.7376269064241076e-01  1.7858748672082614e-01  1.9049661905418686e-01  2.2991570957951540e-01  2.4532067232816812e-01  2.3290676948797889e-01  2.0265655942239641e-01  2.0273624519566646e-01  2.2082694607792078e-01  7.3930756795949548e-01  7.3669352067480287e-01  7.3486455420513697e-01  5.8130910480923070e-01  5.9309028777118389e-01  5.7752844582973650e-01  3.7965935785411120e-01  3.9211221960458298e-01  2.2431833447564423e-01  2.4699881086900921e-01  2.3845552738423598e-01  5.3018056221610745e-02  7.2504831019088181e-02  6.7631929867781423e-02  4.0647457994349802e-02  4.2985183097861292e-02  3.2285205402734260e-02  2.5253430917863889e-01  2.4182983969755170e-01  2.6331010032314134e-01  2.2194777769003105e-01  2.3751146879947577e-01  2.2676519304515166e-01  6.2861795090627226e-01  6.2966122734598962e-01  6.3815376715235372e-01  5.9228402186479734e-01  6.9451781792837053e-01  6.9872992684559443e-01  7.0012257956065016e-01  6.3306952879913259e-01  6.2596008325356001e-01  6.4000183734421301e-01  1.1652685578863368e-01  1.0823116495415989e-01  1.0432122503290067e-01  1.1418174982500373e-01  1.2810346176185342e-01  1.0870184663513857e-01  1.8446977391352010e-01  1.7168897373732953e-01  1.7207828675487580e-01  1.1743115334006707e-01  1.1901670673988408e-01  6.5385185825429759e-01  6.6345234025805078e-01  6.6366697104904915e-01  6.5478012342862768e-01  6.6498005353412981e-01  5.7635187150773204e-01  5.8182160458664867e-01  5.8777189515281469e-01  5.9333405051923727e-01  5.8725987161439930e-01  6.5390629849914261e-01  6.4194674651929251e-01  6.5319577517928173e-01  6.7243625042716060e-01  6.7626666957622783e-01  6.6847588321619544e-01  2.8045085729223634e-01  2.6990487412355790e-01  2.5627420095801290e-01  2.7064670217675914e-02  1.3341846578391553e-02  1.3088636212160103e-02  7.3037776704256385e-01  7.3347472967735339e-01  7.3466729120919105e-01  6.7371448227005015e-01  6.6279415355018501e-01  6.7047008559354282e-01  7.0400985727453280e-01  6.9653373613404013e-01  7.0196148909751510e-01  7.2434238120007632e-01  7.2220658297314289e-01  7.2837695757393273e-01  7.2259799352665832e-01  7.2149665969538945e-01  7.2608285254095006e-01  7.4552796014637757e-01  7.4371434866317543e-01  7.4562766971156591e-01  6.4491232507929230e-01  6.3182839349778186e-01  6.4202907672668530e-01  6.5046707014248972e-01  6.5104055196804722e-01  6.5825860463049479e-01  1.5015434035441833e-01  1.2889699538344354e-01  1.3577243158359079e-01  2.0964708812808275e-01  2.2205475659753654e-01  2.0118023841211716e-01  4.0264934803870367e-01  4.1392085461492900e-01  3.9244829749204202e-01  3.6857784219342948e-01  3.7253940209952280e-01  3.5991082332267943e-01  3.5563604625909062e-01  3.6464679599450267e-01  3.5149095430867794e-01  6.1094236724683126e-01  5.9790104873136740e-01  6.0812379323771981e-01  5.9174233949269950e-01  5.8524917715779867e-01  5.7972028323069613e-01  5.1054057320775936e-01  5.2681442332386619e-01  5.2190075406245173e-01  4.6558188924504090e-01  4.7948629639008811e-01  4.7639625674773661e-01  6.8315944794257488e-01  6.9211902343035769e-01  6.7996812533085083e-01  2.4598580111832880e-01  2.4713143660689119e-01  1.3482689696249270e-01  1.5374338583018665e-01  1.3902064725133775e-01  5.1928903838821587e-02  7.1903213608203828e-02  7.2656049027075204e-02  8.2340873831868014e-02  6.2401560317500014e-02  7.0531766546632180e-02  9.1015393538839640e-02  9.4441113453298434e-02  5.0197852855997191e-02  7.1803345280008327e-02  6.7777682349515769e-02  6.3780175486163673e-02  7.9938418673333705e-02  6.5378688047729089e-02  2.5962069613513900e-01  2.7124883390045806e-01  2.5568409885111548e-01  2.0468779135684384e-01  1.8100374980493553e-01  5.0500255994971384e-02  5.2547745898139701e-02  6.5982732503983205e-02  8.0588834212964908e-02  8.3288850669819531e-02  7.1111372230523814e-02  5.1386154909602944e-01  5.2610274941314594e-01  5.1016034777850372e-01  4.3379858547704164e-01  4.4944634058494320e-01  4.3598860705354403e-01  7.2834358628720564e-01  7.2674693756642239e-01  7.3205185051172794e-01  3.7673735686208615e-01  3.8198957389967303e-01  3.9228408990856845e-01  3.8815835366663565e-01  4.0120673447412303e-01  1.0581838732669717e-01  9.0838893611869545e-02  1.1245219404443262e-01  1.5172167808426323e-01  2.2768343492580304e-01  2.2420271951742871e-01  2.4253248408955924e-01  3.5715986225454549e-01  3.4827086343619235e-01  3.6266279024243597e-01  9.4002210713895126e-02  1.0954918757012387e-01  9.7941961831792726e-02  8.3602903624195160e-02  6.3737172934056868e-02  7.1148762749631916e-02  4.8119066197219912e-01  5.0357749336211377e-01  5.6162712232943401e-01  5.4491681696708949e-01  5.5084091575685945e-01  9.1744909718769960e-02  1.0492064626701726e-01  6.5220606352676402e-02  8.2070441169602701e-02  7.6976915261778286e-02  2.2046727074966116e-01  2.3815669651349000e-01  2.4050660738219695e-01  2.4209048791166990e-01  2.2692161331729724e-01  3.2684315972074057e-01  3.0555159141194976e-01  3.1801880663262944e-01  3.6348140937232926e-01  3.8391485127901459e-01  3.7148777148378476e-01  1.9548474351346276e-01  1.8090677660924120e-01  1.9039547555639361e-01  3.1372044978518776e-01  3.0209602257025631e-01  3.1798303846655473e-01  4.1448946341010018e-01  4.2062826205721227e-01  4.0506426962978787e-01  4.7620784605214322e-01  1.0888973128745001e-01  9.6289154744908192e-02  1.0964877043638294e-01  2.4583107036198421e-01  2.3556316877292571e-01  2.4850974288624780e-01  2.8696929845392488e-01  2.9445297278189442e-01  3.0608281893358696e-01  2.1872912849054535e-01  2.3924752744902961e-01  6.1263729070234962e-01  6.0114251133394725e-01  6.0607357167469422e-01  6.7718115946868962e-01  4.7189416723367805e-01  4.8834911365689188e-01  4.7758233503461872e-01  3.9116030496047960e-01  3.7531886537280706e-01  3.7203848738556450e-01  5.2794306247630907e-01  5.0914877420316962e-01  5.1283510781845854e-01  5.0756198562124677e-01  4.9334067905868340e-01  4.9070552513950327e-01  3.6896442800978285e-01  3.5335266282584576e-01  3.6389864503709263e-01  3.2773222963116910e-01  3.2008851851338405e-01  3.4147057095964273e-01  2.8603646416099288e-01  2.7405739305224242e-01  2.6807082656377818e-01  2.9361436357184323e-01  3.0236997987309377e-01  3.1239371682333988e-01  7.6769107888489868e-02  9.5391184414946914e-02  7.9858563732936483e-02  0.0000000000000000e+00  1.4766255518330980e-02  1.1181905943045663e-02  0.0000000000000000e+00  0.0000000000000000e+00  1.6494687794703772e-02  1.9155307009042478e-02  2.3484911324992020e-02  2.9293677704474250e-02  5.6396257890281709e-01  5.7314864397535192e-01  5.5624313880273191e-01  4.5398431332935646e-01  4.6737623031060543e-01  4.5730898516812818e-01  3.3725601449823367e-01  3.1695027591918379e-01  3.2661726011097486e-01  3.9570607577401196e-01  4.0295369718960550e-01  4.1536507429643782e-01  3.3610373569225371e-01  3.3365656980281044e-01  7.3139827017675185e-02  9.1463689836273065e-02  7.8223265895121630e-02  6.9730705355619926e-02  1.9084687163286465e-01  1.8139153337635075e-01  1.7393996961763680e-01  2.9835765013248561e-01  2.9653451155068694e-01  3.1115986717412991e-01  3.4426419991996238e-01  3.2447303160036722e-01  7.3049120505123988e-01  7.2904230279691851e-01  7.3293021002824343e-01  7.4656513528876367e-01  7.4534438511940460e-01  2.3804423507785538e-01  2.1822025993485886e-01  2.3289772130974568e-01  2.7723440738993843e-01  2.5427435392418818e-01  1.5650467876167612e-01  1.7201657276609425e-01  1.6279351993523206e-01  1.8006256367865392e-01  1.6477628309699915e-01  1.6502140076529251e-01  4.0932120683302636e-01  3.8834084746157466e-01  3.9882721944884469e-01  4.3904038420893599e-01  4.3090219691747150e-01  4.5019541796757456e-01  5.3944064815292025e-01  5.3366938387821872e-01  5.5022139346877685e-01  5.9793620428729333e-01  5.8988724260559222e-01  5.8966458709161818e-01  7.0579545276271594e-01  7.0813835368948541e-01  7.1286867248451324e-01  6.9258818955903934e-01  6.8461522002911035e-01  6.9213199933749991e-01  7.3080970649326726e-01  7.3399790353933914e-01  7.3651598079727931e-01  3.6139748550342682e-01  3.4605440262312254e-01  3.4537832912824118e-01  2.1195199068739129e-01  1.8900358177934989e-01  1.9937367764042324e-01  1.0123171208113742e-01  1.1661281937190224e-01  1.1721301649366812e-01  1.5665613324482514e-01  1.4482231928056280e-01  1.6346662654960806e-01  6.1001912205003972e-01  6.0572783790237317e-01  5.9910297105192623e-01  9.9179035842180768e-02  1.0878776436407775e-01  6.5873255901908079e-01  6.6997825975126890e-01  6.6528764640952864e-01  6.8435226768805124e-01  6.9492602125101000e-01  6.8847996926080457e-01  6.5878019510149088e-01  6.7062741282862703e-01  6.2920090129223127e-01  6.1958700300660408e-01  6.2144537713115677e-01  4.0598199364592125e-01  4.1869072045214833e-01  4.1064037030902539e-01  5.5796002624986474e-01  5.4182129308866744e-01  5.4935389872872753e-01  2.7723190602022111e-02  1.7982634276655984e-02  3.0758667135575277e-02  2.9204071536830495e-01  2.8204314201087516e-01  2.7897244497733104e-01  3.1325733761321106e-01  3.0759875739342851e-01  3.2694959973694265e-01  9.9879393453026724e-02  1.0429519694602675e-01  9.1414485010212335e-02  1.3913995116906144e-01  1.3666078641559593e-01  1.2596600092143870e-01  2.0620931976611467e-01  2.1255768585290519e-01  1.9696912223988200e-01  5.0660257879829251e-01  5.0019626528444983e-01  5.1130441583519881e-01  6.8025291984825431e-01  6.8951564870430293e-01  6.7755230909614772e-01  7.0093654134895711e-01  7.0039605741592181e-01  6.9280629250739678e-01  4.3143628653582643e-02  2.6410318096804601e-02  3.0708467908940894e-02  7.2598729587677435e-01  7.3184706005651123e-01  7.2773337032423724e-01  7.2545105563947765e-01  7.2929449712256800e-01  1.9538125735893716e-01  1.8245291478974193e-01  1.9636374215091137e-01  1.8273348059035205e-01  4.6650069893479523e-01  4.8190699558762867e-01  4.7405020390696140e-01  4.9277692579233723e-01  5.0482721554252374e-01  6.8630071936211645e-01  6.9657584113432258e-01  6.8967362637452156e-01  7.0888823029537795e-01  7.1560482772197453e-01  7.1119391181513847e-01  7.0816097297801339e-01  7.1444342284094864e-01  7.1642095464426003e-01  6.5112179552618688e-01  6.6309602485828012e-01  6.6409132994885844e-01  7.2071329692450603e-01  7.1779491055833644e-01  7.2269697891596563e-01  4.7644541459925777e-01  4.9048345165212082e-01  4.7055870971437491e-01  5.2400255554392627e-01  5.2023076371972554e-01  5.3477529595203865e-01  3.9774941970450806e-01  3.7498129283213355e-01  3.9192709649431839e-01  4.3662678700164459e-01  4.3360130496574012e-01  4.2636320897828106e-01  2.9283739654912194e-01  2.7420961530704546e-01  2.8495989297436802e-01  3.6723808796099705e-01  3.4969821347471625e-01  3.6285059751982651e-01  3.7143393185350781e-01  3.7758951558780879e-01  3.7253059674158800e-01  3.8722751048473253e-01  3.8239475816785584e-01  1.6941158037474116e-01  1.5204549382939392e-01  1.6915070726332690e-01  1.3761206290130285e-01  1.5277371671350815e-01  1.3250464956658492e-01  5.6715907016544287e-01  5.6944532842981543e-01  5.5594795185160473e-01  5.0453533405183393e-01  5.6743736648804399e-01  1.2971725021765967e-01  1.1441154861067243e-01  1.3473166458038977e-01  1.6959741761780758e-01  1.5265276391478891e-01  1.7285922978592719e-01  1.5947305386412181e-01  1.7331887623958586e-01  1.7393141629910247e-01  1.3755830675066702e-01  1.2076493309248702e-01  3.7205371730086235e-02  2.2113095554064960e-02  3.9624278090486943e-02  3.9856226594518498e-02  4.5093481891205607e-02  5.3853962702781040e-02  1.2554810420452345e-01  1.2669366453979436e-01  1.3779625645387306e-01  1.5198251693150708e-01  1.5024698987376375e-01  1.3894736151168485e-01  1.3046842817259943e-01  1.1521479421465779e-01  1.1355693115974400e-01  2.4603939609060008e-01  2.5163318977542015e-01  2.6633003512927883e-01  3.9888000284463049e-01  3.8087844433042434e-01  4.0230963525842650e-01  3.9309681141547093e-01  3.5165560869141760e-01  3.4498024372963237e-01  3.6727006731471085e-01  6.7684085546061423e-02  6.0492649128296952e-02  1.3496618022302895e-01  1.4481727345374862e-01  1.4739965359985721e-01  9.4914450225178776e-02  8.5440476468033336e-02  6.6188949110985418e-01  5.9974513331211310e-01  5.8784279070063383e-01  6.0355593509233785e-01  3.9824109020873039e-01  3.8943659476732706e-01  4.0887243124660427e-01  3.7006568851420502e-01  3.7429432630969206e-01  9.6279795687115297e-02  1.1373341058423632e-01  1.0658766582209395e-01  1.2096736387179803e-01  5.4122888192963325e-01  5.4745801188311982e-01  5.2845630145352729e-01  5.2219524490576907e-01  4.6158276032125611e-01  4.7113264000345983e-01  4.3041428197624121e-01  4.2574252377193988e-01  4.1555756237159536e-01  2.9738462759591711e-01  3.0159263654834917e-01  2.8845300956400788e-01  2.6223096019403913e-01  2.8132080403134757e-01  2.6954353767547795e-01  3.6873656017686207e-01  3.6034527001508937e-01  3.4816541408384916e-01  3.3631432722928195e-01  3.5417062006828198e-01  6.3323317266426149e-01  6.2191312103676932e-01  6.2696572087204949e-01  6.1254275279859804e-01  5.9935454178075243e-01  6.1037026638053804e-01  6.1948722689715563e-01  6.1987783453475920e-01  6.2891927119014035e-01  2.6776891861471766e-02  3.7886512611631194e-02  4.5716346299662439e-02  9.9490765484057136e-02  1.0500088836697807e-01  9.1295171748296017e-02  7.2822465954285898e-01  5.3553123789736845e-01  5.2043047676542686e-01  5.3152131500787081e-01  5.1546332393712002e-01  5.1807537904147183e-01  5.2689634249061545e-01  5.1481279012415337e-01  5.4208084456391614e-01  5.3881169804381168e-01  5.278611226