<?xml version="1.0"?>
<VTKFile type="UnstructuredGrid"  version="0.1"  >
<UnstructuredGrid>
<Piece  NumberOfPoints="4266" NumberOfCells="8278">
<Points>
<DataArray  type="Float64"  NumberOfComponents="3"  format="ascii">0.332914414052326 0.6495186433047222 0  0.350035852606398 0.6547949268996196 0  0.3447079687368382 0.641666296524555 0  0.1509629198243326 0.4394805475385499 0  0.1574618691699577 0.4256374769288144 0  0.1639598037427407 0.4371351587205499 0  0.3398416053252553 0.809393929507541 0  0.3182425982666752 0.8112424579812687 0  0.3303994577747308 0.8261781287051263 0  0.2807025901357054 0.7290648010030609 0  0.2693712444400472 0.7397307729917455 0  0.2675171021349819 0.7264088643605077 0  0.5829764460070728 0.4876477017753671 0  0.5636631415662405 0.4806275825024552 0  0.5760180926912839 0.471876660868964 0  -0.1271013736123637 0.8128950760141003 0  -0.1445811026190907 0.8119118999057399 0  -0.1316347946497995 0.7953214846907589 0  -0.4581654891279018 0.7050956478196405 0  -0.4495185704017219 0.6919162010453052 0  -0.4448129225315993 0.7121783443626279 0  -0.1880292666509401 0.6948349589189414 0  -0.2018759567934805 0.679511249409967 0  -0.2024562418194335 0.6939534755125041 0  -0.2140543535049902 0.8855533563615821 0  -0.2177606820535586 0.9056463175150016 0  -0.2018623987848239 0.898190586260888 0  0.4322090051131867 0.6624612598186196 0  0.4146876010546104 0.6789232817918601 0  0.428503716053142 0.6848116787928238 0  0.4029812328035552 0.8407687967874943 0  0.4051394625148355 0.817767417981298 0  0.4178977239794076 0.8281891941993458 0  0.006078813178473639 0.7670889272345903 0  0.02260651009724353 0.7633305111235777 0  0.005125719913978016 0.7490533914639859 0  -0.1571199485664077 0.7620018712563817 0  -0.1746605350189528 0.7770146890610292 0  -0.155743362764028 0.7794691025403202 0  0.1413607558117983 0.4630356083621213 0  0.1374150801464661 0.4794310028365596 0  0.1232856871789455 0.4639250448759384 0  0.06256031293062904 0.8302272950216463 0  0.04798720663564734 0.8386697515782279 0  0.05348580465792466 0.8161067716706272 0  0.07804752670323852 0.6400824141788281 0  0.06033342557497019 0.6526757464603348 0  0.07854531892308642 0.6595378398448787 0  -0.507622037525672 0.4070516661891727 0  -0.5081901160223834 0.3899509166143055 0  -0.4921674949269925 0.3987316133739493 0  -0.3068319627397568 0.1582865587979037 0  -0.3296560711934549 0.1619170474326295 0  -0.3168146285735117 0.1716618704250606 0  -0.4586196893549722 0.5584655526438173 0  -0.446943582453926 0.543154611764088 0  -0.465633660949158 0.5453818001333602 0  0.3831414326149375 0.8107099352150432 0  0.3753817424581156 0.829695642271972 0  0.3920273310628238 0.8281390440289584 0  -0.6749085222138679 0.334411519106221 0  -0.6637201098489627 0.3140132042669073 0  -0.6795939777218857 0.3185739991614875 0  -0.5791130661390927 0.7346014223532424 0  -0.5933681133834627 0.7381717694620178 0  -0.5748132513880116 0.7473695803479472 0  -0.5391069590138896 0.745165717765377 0  -0.5625738666025707 0.7530008968499093 0  -0.5578514271746238 0.7321226777682319 0  -0.2413621327137381 -0.1523138363781986 0  -0.2268202344970037 -0.1591382524790036 0  -0.2412464607625224 -0.1671917300371307 0  0.09927902037336662 0.9149708283062259 0  0.1157895516840189 0.9189776608398325 0  0.1063134374874596 0.9315309264794555 0  0.06116446405179456 0.4911833230803823 0  0.07730596882940004 0.4742920138205912 0  0.07830662548657039 0.4953344334897695 0  -0.101240928421921 0.758652892213407 0  -0.1126561174512113 0.7679041581977381 0  -0.09347689488007802 0.771127355971357 0  -0.6440398227190394 0.4357239888300835 0  -0.6359504943829237 0.4555801607307075 0  -0.6328217507707823 0.4415406738647967 0  0.7263802803538117 0.5631043356200172 0  0.7108704287310817 0.5595900727741592 0  0.7242940159102983 0.5425933715166618 0  0.5038718219523224 0.5544334551657892 0  0.4877560869605388 0.5396871818096673 0  0.5044160012643252 0.5319783219067643 0  0.07081074097663426 0.3186286742512116 0  0.07346941078982666 0.3401307037044159 0  0.0576197784904541 0.3239018341387644 0  -0.3005413308806231 0.1129696382239433 0  -0.3192043351541243 0.09836040108305644 0  -0.3187938517836389 0.1170614402710302 0  -0.04851146773134357 0.4867872264827524 0  -0.0472247571585732 0.5033083754239025 0  -0.06335753174075238 0.491934542470062 0  -0.3892070283047418 0.4786861355265704 0  -0.3714027727299681 0.4756864802956608 0  -0.3827974118685362 0.4623921713509622 0  -0.7411095007633245 0.575029805494202 0  -0.7605003164559296 0.5782101812185654 0  -0.7488870496543684 0.5883132185438822 0  -0.7235805144123104 0.5200565098232155 0  -0.738618812363851 0.5236972966413135 0  -0.7284642311301335 0.5327625764414463 0  -0.2314719560991426 0.03549491619166019 0  -0.2303332909622441 0.05439758634173875 0  -0.2400458841910318 0.04549702594926252 0  -0.008296326578782015 0.6086478568131694 0  0.01122982598345495 0.6123443607668545 0  0.003980826942925998 0.5972159239537265 0  0.01371423415457438 0.8573404176908449 0  -0.002794414052867285 0.8659378714417731 0  0.007843166883866432 0.8762473671836795 0  -0.06939556685310261 0.8588521408268257 0  -0.05948654623964005 0.8457213462672603 0  -0.0557236259197124 0.8588652639392508 0  -0.4589833292911141 0.5816849370690288 0  -0.4476215744943611 0.5677693785034353 0  -0.524949258381664 0.6828407606378746 0  -0.5150187895388144 0.6625705724119358 0  -0.5088018694929584 0.6781838611669838 0  -0.2818430264076795 0.0003382359467896529 0  -0.2652744050783558 0.01201766272913534 0  -0.2792800812328205 0.01792173624780021 0  -0.1375645435999634 0.02928053735830581 0  -0.1393867504822479 0.005795814591015106 0  -0.1580085151925672 0.0190537538730686 0  0.3315205285923649 0.4671007065140736 0  0.3125911820565935 0.4627236293547771 0  0.3198711767839099 0.4743601478668478 0  -0.4416327711127045 0.528188803075854 0  -0.42043207916408 0.5325084464725358 0  -0.4211118506379022 0.5184623300457841 0  -0.400894961242765 0.448519227309272 0  -0.3795398849611781 0.4381803585696618 0  -0.3779683559246526 0.1015844903635233 0  -0.382531330591133 0.08930344838901749 0  -0.3910048287120285 0.102886453132009 0  -0.3869421348601627 0.1749260482753183 0  -0.3757026843568829 0.1541503186649135 0  -0.367050066625653 0.1705222421176009 0  0.1697279419526465 0.3618104710983251 0  0.1894767621098231 0.3621593301494297 0  0.1766148606453463 0.3766321490635753 0  0.3175555361844976 0.6203848435927939 0  0.3345552866765177 0.6089124536076582 0  0.3249698706754737 0.5980365821192262 0  -0.1339413446256386 0.5457851785332439 0  -0.1526445775437433 0.5334441245528644 0  -0.1392346425806756 0.5326434877740723 0  -0.06425900875333679 0.4688403081854889 0  -0.05529929859147319 0.4516548662966833 0  -0.07615422062026381 0.463903402603304 0  -0.278483283260311 0.9185916019998196 0  -0.2956452215663841 0.907791082738426 0  -0.2823823305480626 0.9057518061522771 0  -0.3559212036505843 0.9070901940436692 0  -0.3342343936343474 0.9064002935227704 0  -0.3444887802934804 0.8952572882561013 0  -0.4224693536609981 0.7183353876298264 0  -0.4061482044249017 0.7039694892534414 0  -0.4025148468220963 0.7174557197369782 0  -0.2991768288254021 0.681309361225804 0  -0.2858448756879212 0.6885781091268239 0  -0.2869886080834934 0.6748151268474881 0  0.6782774147583657 0.7337563733932891 0  0.6645157295220289 0.71750992948401 0  0.6635479539083358 0.732281388692918 0  0.5867961229040197 0.5340133274712827 0  0.6002916769092745 0.5300916477538961 0  0.5929900107960145 0.5466215950402394 0  0.5159544060005026 0.6878176699708392 0  0.5122479088226618 0.6710487157848961 0  0.5030023430927832 0.6818864003643841 0  0.4208129660769374 0.7369214216995047 0  0.4161219642283353 0.7186054954352281 0  0.4034166386965947 0.7287978348653198 0  -0.05058840002958302 0.01664330261368143 0  -0.06782801487027172 0.01105825813027281 0  -0.06060561770281364 0.02607735719710087 0  0.08164933247143509 0.2630011494424497 0  0.09369464683973068 0.278533427859859 0  0.09810693527780626 0.2626749665166973 0  -0.1504872407416525 -0.1421626572733334 0  -0.1705165659739513 -0.1404373886184603 0  -0.1604755106946349 -0.1572460092334305 0  -0.1447129275324389 -0.106482705958092 0  -0.1419853542253846 -0.1252313490297633 0  -0.1561372649653827 -0.1177174579139968 0  -0.6951576928890359 0.4758963864002503 0  -0.7106723235953296 0.4708123916406384 0  -0.699431420230763 0.4627236578561629 0  0.4755169449756932 0.4909210876291945 0  0.494127149468629 0.4844880490678379 0  0.4892709553865416 0.500574861277703 0  0.4467729628007534 0.4663817228064593 0  0.4560778556466092 0.4845867088651602 0  0.4631507151083092 0.4694912030156104 0  0.2128942583195763 0.2644806730761504 0  0.2247761344637584 0.2517453977254175 0  0.2091130426491661 0.2490423695972016 0  -0.2875481774750799 0.09537363130635237 0  -0.3034182525195322 0.09642190706859868 0  -0.4515202253909735 0.2025862122920294 0  -0.4386405423918204 0.1828638087383335 0  -0.4523337628777539 0.1879882033728548 0  0.2794138014287033 0.9317363626854627 0  0.277358580676769 0.9472805712477746 0  0.2900975625439389 0.9410569185089307 0  0.2567741049371187 0.9104522999621892 0  0.2404500137637132 0.8947278027972118 0  0.2649032218030534 0.8904103733438133 0  0.2242467665771498 0.448158124301501 0  0.2295529427779222 0.4342960624490632 0  0.2385612639111096 0.4520321359849135 0  0.1170643917672381 0.3566870190192344 0  0.1110106043840692 0.3391497435850614 0  0.1240090541008423 0.33598826927084 0  -0.0790543871400315 0.492648131300411 0  -0.06321789373789302 0.5076469891182717 0  -0.1680294870233596 0.3033125654794206 0  -0.1522463381690819 0.3173597305697894 0  -0.1656108268022235 0.3252530803521215 0  -0.5328934950392848 0.8042508636529442 0  -0.5158006838270621 0.8085421858525899 0  -0.5267114469912973 0.8158140225539202 0  -0.4984766512980752 0.7147319776453481 0  -0.4961536227570694 0.7365122789311654 0  -0.4854796835698065 0.7259824008309884 0  -0.7453748565371457 0.449346994057572 0  -0.7497203529707557 0.46785017658
[...]
<PointData  Scalars="f_3411-2"> 
<DataArray  type="Float64"  Name="f_3411-2"  format="ascii">2.5992680816820912e-01  2.4710577993166682e-01  2.6143011259983584e-01  5.1874218199439226e-01  5.2817721963964215e-01  5.1677029323701640e-01  1.1241020760152885e-01  1.1861040565507180e-01  1.0085558587673434e-01  2.0790782979870467e-01  2.0187304094076575e-01  2.1508847352683497e-01  2.2928307981337259e-01  2.4890743613244232e-01  2.4494181155136763e-01  1.6635618708121128e-01  1.6448069890124836e-01  1.8291570403268015e-01  1.4847068112852024e-01  1.6402234471689375e-01  1.4961069753013836e-01  2.7016911646036801e-01  2.8126721744981109e-01  2.6700834068267437e-01  8.0600548009979636e-02  6.1558290753706460e-02  7.1661272607629861e-02  1.9817187219423926e-01  1.9356040393690557e-01  1.8123055122330300e-01  6.0660527203119374e-02  7.9160667181050123e-02  6.5037689905221352e-02  2.2220510812051561e-01  2.2566775967291824e-01  2.4041838742180724e-01  2.1118049423321272e-01  1.9267654659928068e-01  1.9422577150036352e-01  5.0135420711250245e-01  4.8802786157713207e-01  5.0496950594268819e-01  1.5665414330582805e-01  1.4927328768522130e-01  1.7125217737372805e-01  3.4617935734698430e-01  3.3546902302569542e-01  3.2659218321312633e-01  3.4026774031213280e-01  3.5046077703978507e-01  3.5765734401433152e-01  6.1525858959756352e-01  5.9903031986442867e-01  6.0410985461086930e-01  2.6728498308588589e-01  2.8681438774205881e-01  2.7286134738895373e-01  9.4301716838057617e-02  8.0998622480176849e-02  7.5736804371040245e-02  2.3627685527339246e-01  2.5550066122639720e-01  2.3887347330460879e-01  5.7833062828348603e-02  4.7000221911933274e-02  5.0977905192564218e-02  7.2471960734871874e-02  5.3637309221746587e-02  7.1770917722223937e-02  6.5550149133971047e-01  6.6052299055979091e-01  6.5035367681404899e-01  7.1966651368892631e-02  6.6326334164384840e-02  5.5719034781307783e-02  4.9146841641289585e-01  5.0457957015813337e-01  4.8550391215748612e-01  2.2401406024239556e-01  2.1308029807551515e-01  2.1237252329991643e-01  2.1160134945010223e-01  2.0688180790334026e-01  2.1761069925058851e-01  7.3061539985143933e-02  8.6634561117864148e-02  8.6491259097494416e-02  2.4037154983902714e-01  2.6239871753932420e-01  2.5664183251294409e-01  6.2860419511874843e-01  6.1332952038186883e-01  6.2674786499437662e-01  6.3226682289161174e-01  6.2329233498002967e-01  6.1928877139793037e-01  4.9673525392338630e-01  4.8175806069964100e-01  4.9049994889538845e-01  3.7410670559114878e-01  3.8750045468570576e-01  3.9070092543973345e-01  5.5438347965686537e-02  3.9438980224803043e-02  4.2236801621856265e-02  9.9696208803263409e-02  8.5956647763350283e-02  8.8696335249089861e-02  6.8475721929080879e-01  6.8346231838678095e-01  6.7928129068347176e-01  3.8236997351863511e-01  3.7860887082612865e-01  3.9367546308098200e-01  1.3221953243115506e-01  1.2385240755414145e-01  1.1389172514719108e-01  1.2811565810667658e-01  1.4160543844034879e-01  1.2903096338562836e-01  2.4869201451773268e-01  2.6685437798733347e-01  1.2846984651595728e-01  1.5010228962233957e-01  1.4157516827174677e-01  6.5772907828983940e-01  6.6741992247318660e-01  6.5881154492882532e-01  7.2456629468371025e-01  7.2496217947307107e-01  7.1818859663369816e-01  4.1772041740542581e-01  4.3172358062241450e-01  4.1835215148548399e-01  3.0199830037520631e-01  3.1216895188273863e-01  3.2283019069215996e-01  3.8944368894431330e-01  4.1099742525569349e-01  5.8030485400006093e-01  5.7913009072536636e-01  5.6985689229408198e-01  5.5321469683364000e-01  5.6851802310281208e-01  5.6959724570467263e-01  5.7373705572919775e-01  5.6632628288443754e-01  5.6036768797365277e-01  2.9342808414740873e-01  2.9561301309444343e-01  3.0994024983790969e-01  4.2826297563741006e-01  4.3511442308394715e-01  4.3923116103289983e-01  5.1120159816026678e-01  5.2720337009031326e-01  5.1385955894488300e-01  3.5380107067626260e-02  4.0029630155433482e-02  4.5542517218923544e-02  2.2334928530394326e-02  2.9648772232441643e-02  3.5907787571385838e-02  1.5589697952009920e-01  1.7635501647470819e-01  1.6643843667303279e-01  2.4550180166717761e-01  2.4396927692200088e-01  2.5645105243764715e-01  0.0000000000000000e+00  1.8914311573944669e-02  9.9321989407685669e-03  1.9571075926764964e-01  1.8820541462796112e-01  1.8260526101035124e-01  1.2986520327482509e-01  1.4518173485668548e-01  1.4208599465305519e-01  1.4081918493339118e-01  1.5879745202757867e-01  1.5623914603436134e-01  7.4421971800008868e-01  7.4204660514858856e-01  7.4238306639253404e-01  6.6163381733039006e-01  6.5015434509925163e-01  6.5848598643859990e-01  6.9825207751402618e-01  6.9150355690938281e-01  6.8958482208285388e-01  7.1014048208789471e-01  7.0615816443701906e-01  7.0341961319524304e-01  1.4692546415299620e-01  1.3705369092151568e-01  1.5061381296300977e-01  3.0709761152485493e-01  2.9838269813959839e-01  2.9032065269066365e-01  3.4519538561202784e-01  3.2531323608473439e-01  3.3132483886242353e-01  6.1938369667867332e-01  6.2082647640852351e-01  6.2936401720540969e-01  6.4438377742605712e-01  6.3403136047523678e-01  4.9155734199893864e-01  5.0931929881881055e-01  4.9613794059687516e-01  2.3799443015853339e-02  1.0941293150873841e-02  1.2893407558151111e-02  4.8133239749891699e-02  6.6138195631613245e-02  6.3800414113349357e-02  4.8582608111503706e-01  4.9484801223974423e-01  4.7652626929372044e-01  5.9275493255887901e-01  6.0669528867232536e-01  6.0582104740036546e-01  4.8785857831713525e-01  4.7615841016413929e-01  6.1417596463941015e-01  6.1035887698134672e-01  6.0064531178880021e-01  3.0991767731097360e-02  3.6103446180385870e-02  2.5095090157074104e-02  1.1864388241523653e-01  1.0252049261583258e-01  1.1674114262312060e-01  1.1962713161884114e-01  1.0673488546078237e-01  1.2039095764552869e-01  5.9409131069739063e-01  5.7676598125653755e-01  5.8751693072609645e-01  2.7430174243165617e-01  2.8766624058877588e-01  2.6292082511298004e-01  2.7007923571175113e-01  2.7588745650290464e-01  3.1940327484444003e-01  3.0588694272598121e-01  3.1255932676889575e-01  3.7633539521260306e-01  3.6172100519174855e-01  3.8463101657630039e-01  4.9066934708211857e-01  4.8998922291947355e-01  5.0109530923641454e-01  5.7284921625171226e-01  5.6928794513829406e-01  5.6208198146092425e-01  5.7367340706476067e-01  5.8501200307427592e-01  5.8599203388391763e-01  2.4090941927244985e-01  2.5800305999869927e-01  2.5055130474595644e-01  2.0543178868003856e-01  1.9050667500188267e-01  2.1357138702110373e-01  7.0859831959905917e-02  6.1671154228997820e-02  5.9070623459274496e-02  1.5525975385719382e-01  1.5614095508773085e-01  1.7402180337183440e-01  4.6096678098001326e-01  4.6791232282037354e-01  4.8264251244580048e-01  2.8124049708972076e-01  2.6197088410220787e-01  2.7569194890270748e-01  4.3924349577446264e-01  4.4102040821825289e-01  4.2628639499649834e-01  3.9852017364478604e-01  3.8304526922327331e-01  3.9138870062485465e-01  2.5401886564407766e-01  2.6298632715827397e-01  2.5169271192858156e-01  2.6968145541812316e-01  2.8352991202786376e-01  2.9260572565186982e-01  6.8405009561787267e-01  6.8593664519368025e-01  6.7721889165104399e-01  6.5830376796973145e-01  6.5864371313286529e-01  6.6655436408890623e-01  7.1778007827698753e-01  7.2347020150953323e-01  7.1752650326431788e-01  2.0435629687571601e-02  3.5600970086638026e-02  3.5139820637865575e-02  1.6735943358842334e-01  1.6521325327875341e-01  1.5116175955619654e-01  2.0042505865214961e-02  1.1280485962165522e-02  3.0574851345950782e-02  6.3061406069960288e-02  5.3629429322288605e-02  6.9639716870804488e-02  4.2665235138270319e-01  4.1581835433654152e-01  4.1220741115322401e-01  2.2013699272488571e-01  2.1256168262343345e-01  2.0854701542926962e-01  4.3957581965296999e-01  4.4240069775821961e-01  4.5149904067001212e-01  4.7880742486837258e-01  4.6665546142490899e-01  4.7609184247460484e-01  4.9997217092484919e-01  5.2090792118949514e-01  5.1051166621753175e-01  3.2905252439263311e-01  3.3466605778602865e-01  3.1616552320529917e-01  4.6523981334347408e-01  4.7384502556554536e-01  2.4026939531322170e-01  2.4945227001601133e-01  2.2747154468963540e-01  1.7526052230992428e-01  1.8139470253951759e-01  1.6868849781868187e-01  2.1527575559886425e-01  2.2344098165476811e-01  2.2838894210838889e-01  6.1292057735480143e-01  6.2353243722427620e-01  6.2485151941350037e-01  6.7092097364940384e-01  6.6190965056205775e-01  6.6586285100352915e-01  7.0973990648453478e-01  7.1449358999634027e-01  7.0636770414901084e-01  3.8550313277207093e-01  3.6872083708050379e-01  3.8635698586557798e-01  2.3829722730356306e-01  2.2365653821241024e-01  2.2351458028051632e-01  7.0971701075675153e-01  7.0743760793398569e-01  7.1348302568741850e-01  6.7739802564418206e-01  6.7779965532433495e-01  6.8772578458886247e-01  1.3027938195924488e-01  1.4231877191937706e-01  1.2924774501579531e-01  1.1675141020144580e-01  1.0235233147592240e-01  3.9874350655920476e-01  4.0259722081249133e-01  3.8984390042936640e-01  4.8769612274443058e-01  4.8229285303100233e-01  4.7674545889492431e-01  4.4965094403129413e-01  4.6585590579633246e-01  4.5530611521392644e-01  2.3778481165326518e-01  2.3498822483085632e-01  2.4905211445306283e-01  1.3343022097960971e-01  1.4653259863170187e-01  1.2987141834532503e-01  1.5514576397899363e-01  1.6471051226176894e-01  1.4524811602391549e-01  1.2018909085749604e-01  1.2062782107141103e-01  1.0869324118715452e-01  1.2915540811073731e-01  1.1291384042455481e-01  1.2606892795227531e-01  7.7040361507209387e-02  6.2942161925755871e-02  6.7798110819128982e-02  3.6075560322697081e-01  3.6048398011708355e-01  4.2971313935000932e-01  9.8820563517648480e-02  9.7050042019904928e-02  8.1220475340195983e-02  3.1529617702988448e-02  4.7251266248524208e-02  3.4403665477875184e-02  2.3291297713506048e-01  2.3560334089748794e-01  2.4798780339528681e-01  6.7941966629025810e-02  6.0360566158268299e-02  4.7491058988447535e-02  5.6826786954406872e-01  5.7565656426890177e-01  5.6244479094015809e-01  5.0296767696934319e-01  5.2175009479877765e-01  5.1619418911523773e-01  5.5390392331366245e-01  5.5267023042808572e-01  5.3908430226306836e-01  4.4402123188944964e-01  4.4869529509136530e-01  4.5842488975442008e-01  1.3768160126146992e-01  1.4328857119617791e-01  1.2979417233391849e-01  8.1537353645488544e-02  1.0523811855690010e-01  1.1484759376456402e-01  7.7400421479613762e-02  8.4660868211168069e-02  8.7948320956540399e-02  1.3386097678457923e-01  1.3688965734623712e-01  1.4537318332690466e-01  1.5616933177264017e-01  1.5100208382709948e-01  1.4200361967539513e-01  6.5045269048467480e-01  6.4161599185588392e-01  6.5036500997218960e-01  6.8128350067765120e-01  6.8419945918763680e-01  6.3907983159562842e-01  6.3083175812090675e-01  6.2928570151146324e-01  5.6869751030061721e-01  5.7015736376594794e-01  3.1332853955678652e-01  2.9509741381807864e-01  3.1976287588766156e-01  3.3699608674817644e-01  3.2042412079685650e-01  3.4173500864837847e-01  7.2912956137121554e-01  7.3025110967719586e-01  7.2712341925112001e-01  7.3496377335491048e-01  7.3293153723608118e-01  1.8588603089423966e-01  2.0598246603087111e-01  2.0393316085216304e-01  1.8275585008508433e-01  1.9241803550246381e-01  1.9976201631275028e-01  8.2454013444673860e-02  7.5989866264028469e-02  7.1452746226181044e-02  1.0049190352805275e-01  1.2249074640385277e-01  1.0885824188120961e-01  1.8532441087453760e-01  1.9796316830030325e-01  1.8502709092747380e-01  6.1561728949183081e-01  6.2606800721520095e-01  6.2532451117850629e-01  6.0515512570012731e-01  6.0041783192067899e-01  5.1641979823402184e-01  5.2393081331879932e-01  5.2880375268661350e-01  6.0778545672149620e-01  5.9995280693001229e-01  5.9219510808646114e-01  8.9492496077554176e-02  1.0757671633755149e-01  1.0457001251225277e-01  5.9802837315828840e-02  6.2764750948353987e-02  7.4438423202185619e-02  6.7406860002708591e-01  6.7046765553779331e-01  6.7950372505964984e-01  1.8781104168766774e-01  1.7991870318710451e-01  1.9648961145471577e-01  3.2728540728539934e-01  3.3732301669348824e-01  3.3992022830010660e-01  4.5346460384074927e-01  4.3382266081838589e-01  4.3699624420011146e-01  4.1417770514318675e-01  3.9947576434384086e-01  4.1923675892378554e-01  5.2621263860092859e-01  5.0872197932549845e-01  4.2674818254473001e-01  3.4479606667427165e-01  3.2793562796094916e-01  3.4591310626931382e-01  3.1299740524992081e-01  3.2936327270608567e-01  3.2659280995997936e-01  3.7485247874249911e-01  3.9107781239106182e-01  3.7636805534730178e-01  3.2415199035204595e-01  3.2794382625556162e-01  3.3786274032052716e-01  3.5714606668253540e-01  3.4514331782615598e-01  3.5934923192512325e-01  3.5024944617256376e-01  3.6458233769722309e-01  3.4588348084374804e-01  4.2292866092983789e-01  4.0514970612547746e-01  4.2574700593785686e-01  6.0596438633957750e-01  6.7599235287908765e-01  6.6725800228692222e-01  6.8015600400387533e-01  2.7757755970445458e-01  2.6002275170552497e-01  2.6787698719519315e-01  3.9711328952679231e-01  3.8744662922587997e-01  4.0912551427250521e-01  4.6914850936286323e-01  4.5944553808451716e-01  4.7472444630796107e-01  4.6910515879041742e-01  4.5046002064914664e-01  1.1535295035920866e-01  1.0602672282535656e-01  1.2393923880829874e-01  1.7911574735572133e-01  1.7244395251125227e-01  1.6176828348320144e-01  1.6580166814393529e-02  2.8589799209421545e-02  2.1238099327153817e-01  2.1079871677674325e-01  2.2880927592156999e-01  2.5020243457582875e-01  2.5614252998427095e-01  2.4183249806264262e-01  3.5102912822806065e-01  3.3853876392448756e-01  3.3742060182271688e-01  5.4539410259971843e-01  5.5815980541907029e-01  6.0866231923454028e-01  6.1877302942013601e-01  6.0545369060969523e-01  7.0475732358861953e-01  6.9489795881149763e-01  6.9772809771292355e-01  7.0058684334449683e-01  7.0815110430921713e-01  6.9952532507699750e-01  7.3489313656760935e-01  7.2954140562159242e-01  7.3280600894370351e-01  7.3845533386977280e-01  7.4070267675670787e-01  7.3743188280847849e-01  9.5839162669716108e-02  1.0847316732380879e-01  1.1041470349101018e-01  1.6200916449494032e-01  3.0284827135368120e-01  2.8505858353511199e-01  2.9347312541872317e-01  3.4222502893327544e-01  3.6179495202294049e-01  3.5099611126017788e-01  7.2947333220808264e-02  6.9650462283142478e-02  5.8251243425472027e-02  1.7923184321875404e-01  1.8758467548197863e-01  1.9355622113162044e-01  1.3443075048888653e-01  1.3266066591324183e-01  1.9797557917620393e-01  1.8706302090829907e-01  1.8519736153491431e-01  1.2818732636708363e-01  1.4746131637182280e-01  1.4320782447790320e-01  1.1266189841438651e-01  1.2619498857403794e-01  1.3384223828157771e-01  1.4528180838112886e-01  1.5433988347392982e-01  5.0464292836478930e-01  5.7829281718356029e-01  5.6626664646501457e-01  5.7104995805047565e-01  7.2845260214429686e-01  6.9700486321193644e-01  6.9403343397783179e-01  6.8169226058259791e-01  6.8420571092333782e-01  6.9151330729554450e-01  6.8115096935682184e-01  6.8810392169833012e-01  6.8436354351961648e-01  3.0434207061437663e-01  2.9356095663534315e-01  2.9175599115546436e-01  2.7891383000397368e-01  2.9077862906378488e-01  5.9311832082055893e-01  5.8312205490110958e-01  5.7780084240143126e-01  5.3451137512552804e-01  5.2753285812435735e-01  5.4302833160356423e-01  7.3747023823324920e-01  7.3707526187396966e-01  7.4098744505813785e-01  1.7905973311048015e-01  1.7332374343337151e-01  1.9004276764083763e-01  1.8798579283209321e-01  1.7026914779883731e-01  9.6405504729733249e-02  8.2349024593774106e-02  9.4717669367248791e-02  4.8221724925629866e-01  4.7668389578344350e-01  4.6572017264054233e-01  5.0570855070906906e-01  4.9617566853260858e-01  4.0679835616303804e-02  3.7051796597663313e-02  5.0524549017908968e-02  6.0769512597840906e-02  4.7650329088467162e-02  5.3481746181767389e-02  1.0158578214019111e-01  1.0736160721930622e-01  8.9478970940338895e-02  2.8635529872442322e-01  2.5369884196048431e-01  2.7339039005494670e-01  2.6292154899917036e-01  6.5533006234624369e-01  6.4175795312913608e-01  6.5003101285909370e-01  5.8289777590808711e-01  1.8183007951161062e-01  1.8402971062706105e-01  2.2262351938279359e-01  2.2895446978695388e-01  5.1116849843831420e-02  3.8676823578576984e-02  3.7669891535387613e-02  6.0286449846689394e-01  6.1267968296579012e-01  6.0038679395191907e-01  6.1476168331806857e-01  6.2584368327140216e-01  6.1099294425217887e-01  3.5140936199028366e-01  3.6179309174371022e-01  3.4083203639107712e-01  3.2850900708790626e-01  3.1058978139354948e-01  3.1629006604284809e-01  1.3431409703813171e-01  1.2089402523870606e-01  1.2766947529133846e-01  1.3672563021241385e-01  1.5508695653866372e-01  1.4890933748812454e-01  7.5752340791220285e-02  8.3213933507622267e-02  9.1428378358700643e-02  1.0410827488588346e-01  1.0350885993501283e-01  1.1728697042448429e-01  1.3323603540036563e-01  1.2361835487655701e-01  2.3906074501285968e-01  2.3810743029049025e-01  3.4651709087831978e-01  3.5555577198174543e-01  3.7321293726942267e-01  3.6077428766589947e-01  3.3541055676862552e-01  3.1379294267153340e-01  3.2627039748333364e-01  4.3685579003377029e-01  4.5063648212068752e-01  4.3431774511371862e-01  5.2250393119821725e-01  5.1877706720272321e-01  5.3276823634951709e-01  1.2679018281216456e-01  1.2157424791959819e-01  6.0895572530536783e-02  5.5079737171354108e-02  5.0293365062008523e-02  6.0653095760904822e-02  5.6166741736086954e-02  7.3271629111051798e-02  7.1543509078808701e-02  7.3387534752021899e-01  7.3387624369793714e-01  6.5123410321248032e-01  6.5917867108861006e-01  6.6002168587783006e-01  6.1797153549757566e-01  6.0690922205848885e-01  6.2440941067934330e-01  5.7023958949536369e-01  5.7935302685943590e-01  5.6634908814364771e-01  5.7798878169101187e-01  5.7636603729258318e-01  5.6766450478990638e-01  2.2272818568933081e-01  2.0894646763172964e-01  2.0771188098559962e-01  2.0109060195544559e-01  1.8203933316803181e-01  4.3189375887177561e-01  4.4625465952184346e-01  4.4348857629755772e-01  4.3172429286027242e-01  4.2836934400922078e-01  5.6729729397128836e-01  5.5530964600120558e-01  5.6777239236621457e-01  5.9585329355789096e-01  6.0507402410000721e-01  6.0610643423214716e-01  2.0011991222072739e-01  2.0336304075383144e-01  2.0898866520018411e-01  2.1260025628083615e-01  1.8867107636207470e-01  7.0048655789653663e-02  6.6385637300346204e-02  1.4689563477082085e-01  1.5910929001527310e-01  1.3616651761541351e-01  2.2986212993321911e-01  2.4523049643123732e-01  2.3139302488145086e-01  1.8827681138626665e-01  1.7942728930850457e-01  1.7575491428524481e-01  4.6298636316633357e-01  4.8225649645669932e-01  4.8262066738214482e-01  4.7137773765106444e-01  4.7672237929925221e-01  6.9240155175731677e-01  6.9268727108518879e-01  6.8477975781234801e-01  6.8343925383060855e-01  6.7364645143930812e-01  6.4403274157239038e-02  5.3924686226590815e-02  6.5438607019301723e-02  6.9595329756942853e-02  5.5972462442863663e-02  1.8995382496524074e-01  1.9967724417602123e-01  1.8676527480499736e-01  2.6230248590410815e-01  2.6429754589849613e-01  2.7985296344767902e-01  4.3271225844127720e-01  4.2219538487677816e-01  3.1007010377980915e-01  2.9919233393133338e-01  3.1030486196837304e-01  2.1701227655020458e-01  2.2947423671202793e-01  2.3862814357780648e-01  2.5673806457769577e-01  2.7043249739346253e-01  2.6930359010217814e-01  2.5267127453886897e-02  1.6534084936370579e-02  2.7791070960245322e-02  6.9051172467305877e-01  7.2007053578659230e-01  7.2451445383857416e-01  7.2010135038274126e-01  4.3963391364835847e-02  5.9019051541655300e-02  5.8832903445294280e-02  5.8084267343101592e-01  5.9299540183552057e-01  4.2678615204654835e-01  4.4249830127932938e-01  4.3044161420140037e-01  4.9332326991874276e-01  4.9321321889616498e-01  4.8350806654306178e-01  3.2174816533086265e-01  3.1964150816169612e-01  3.4192612834823760e-01  3.0647624418547587e-01  2.9243941382992361e-01  2.8609449657753344e-01  3.0427107444392565e-01  2.8918994200995429e-01  2.9235078503311884e-01  3.6401467898795903e-01  3.4997494154966247e-01  3.6000436290719540e-01  3.6340743097558575e-01  3.6768383727806841e-01  4.6044393922090360e-01  4.480262006