<?xml version="1.0"?>
<VTKFile type="UnstructuredGrid"  version="0.1"  >
<UnstructuredGrid>
<Piece  NumberOfPoints="4265" NumberOfCells="8271">
<Points>
<DataArray  type="Float64"  NumberOfComponents="3"  format="ascii">-0.7792525913773286 0.3345046215468316 0  -0.7711330414003473 0.3246428900566418 0  -0.7868579957568177 0.3242411589713776 0  -0.7622610025364445 0.3154522553554531 0  -0.7431488385198304 0.3157500769119642 0  -0.7470484099228809 0.3290877643846211 0  -0.7107098322824769 -0.02188923297611978 0  -0.6968423195465511 -0.03307941373315518 0  -0.7050770643014819 -0.0452062041946527 0  -0.7874416731406065 0.1271574170486595 0  -0.8100018987259572 0.1218511787829385 0  -0.803723145980057 0.1092032427763505 0  -0.6537351299417219 -0.2223508052715616 0  -0.6390022945893861 -0.2203614537485091 0  -0.6470428930511773 -0.2412020228470545 0  -0.8843485444218557 0.1203077465414941 0  -0.9005670223575124 0.1241956964402386 0  -0.891904339819266 0.1373537011378205 0  -0.780734872962512 -0.3814240888963211 0  -0.7636720027139818 -0.3917578652913741 0  -0.7793072907858336 -0.4000025546125384 0  -0.009542631540983455 -0.8340393877659124 0  -0.004746243850184115 -0.8576332751177678 0  -0.02071078868481183 -0.8485942270748664 0  -0.3523711848085625 -0.8338412159823982 0  -0.3421570826011181 -0.8136518035297347 0  -0.3632107499103949 -0.8163879901087224 0  -0.3369798519664855 -0.700396187041503 0  -0.3455967298400991 -0.7152622441210773 0  -0.3226115922230449 -0.7087418810767598 0  -0.4616639682678661 -0.3873787889842784 0  -0.4796811869515577 -0.3995827742132161 0  -0.4839693442552714 -0.3833460933330157 0  -0.4816495324061382 -0.5988230878733953 0  -0.4791453694333547 -0.6194504033965983 0  -0.4954325874487714 -0.6098992218129118 0  -0.07598942677810372 -0.5580482426588499 0  -0.05466192522023878 -0.5462734392547973 0  -0.05725814591762667 -0.5667734212673404 0  -0.7362308744466529 -0.4024782213624987 0  -0.7278846197349336 -0.4142621378008046 0  -0.7255646630730683 -0.3932301282164158 0  -0.8272574953138051 -0.05432220121848425 0  -0.8432888338676097 -0.0559487251195205 0  -0.8430083688136352 -0.04250389044318884 0  -0.4471694998023314 -0.3137152693914176 0  -0.4589968486965761 -0.3346629280380058 0  -0.4437009827600008 -0.3294864187641984 0  0.1187830577491173 -0.9398918338643621 0  0.1340145161596301 -0.9311320517671441 0  0.1206154811856133 -0.9240181556713636 0  0.003470967706396468 -0.78287307468588 0  -0.00301864861844418 -0.7644216685927646 0  -0.01012235772704111 -0.7772870891915227 0  0.06411626658539678 -0.8176708847825811 0  0.07748898981851503 -0.8295679604660473 0  0.08500904939490524 -0.8124803863602581 0  -0.02201253055925322 -0.7597524121556751 0  -0.03270496131164639 -0.7382920086024909 0  -0.04215078327515376 -0.7541237737031609 0  -0.8172654230543239 -0.1864129210238419 0  -0.8003994497852369 -0.2007462359906586 0  -0.8184984214064045 -0.1989611808167147 0  -0.108951906106775 -0.5559325695601538 0  -0.122353609401521 -0.5401626764731404 0  -0.1258077259824869 -0.5566776036013502 0  -0.1288044191450229 -0.628969213323385 0  -0.111687271758432 -0.6185905973816244 0  -0.1123206022843956 -0.6394193397569374 0  0.129459682389678 -0.9127937281728747 0  -0.3062913507194913 -0.8502534365339809 0  -0.3088745311444374 -0.8349848073423699 0  -0.3228701369460341 -0.8388459049179995 0  -0.5821919071770641 -0.1903123402092651 0  -0.5956330362536703 -0.2048288183677611 0  -0.5723869478708128 -0.2033506772635419 0  -0.9004249333590447 -0.01021738444872117 0  -0.9061234985508156 0.01020083867410356 0  -0.9163343055919705 -0.003653241000320086 0  -0.8501308606924335 -0.07053762722885465 0  -0.8391688996620842 -0.09117951978097175 0  -0.8343936308453686 -0.07541195056518686 0  0.03491922628234419 -0.7083235215586553 0  0.05163625546949779 -0.7253731355674897 0  0.05721696332443329 -0.7084849508255149 0  -0.8573325203605298 0.3433670940513535 0  -0.8716164816825658 0.3543439865395657 0  -0.8588646418929119 0.3561555125691751 0  -0.750307345651521 0.2369285267957594 0  -0.7448250633358843 0.2232474019023587 0  -0.7374982646104843 0.2341223759348553 0  -0.6972452756388128 -0.4229483771100225 0  -0.7041849766299946 -0.4385666650733992 0  -0.6897634665001157 -0.4361249482241101 0  -0.6142336350560864 -0.2115674987409225 0  -0.5990269613213977 -0.2210680727468513 0  -0.6205369804425765 -0.2264957499735009 0  -0.7337751138396014 -0.3817460614230299 0  -0.06423735541538941 -0.8406241415472656 0  -0.07279526281987865 -0.8552330264858664 0  -0.0802323943878798 -0.8404831187326068 0  -0.2476981798491009 -0.2440846765411376 0  -0.255228243122093 -0.2289130081826335 0  -0.2606246617389489 -0.2493457455419002 0  -0.4297722158691853 -0.6930480130959101 0  -0.4210124037420513 -0.6767231838457004 0  -0.4164782624493177 -0.6896688264566395 0  -0.3203194869259647 -0.8245532760234491 0  -0.3092966383852226 -0.8025237283973123 0  -0.3029935310151011 -0.8206593860229989 0  -0.7565538241801432 -0.4739664727290151 0  -0.7410892367124722 -0.4791938699829456 0  -0.7456962207837202 -0.467334341683422 0  -0.5545888744709112 -0.6778765184341353 0  -0.5349751792739176 -0.6833258942341506 0  -0.5487968949985019 -0.6950517420599016 0  -0.07737504025554427 -0.3944359767354562 0  -0.05882223560049138 -0.4069219909734357 0  -0.06218640590903333 -0.3918940759060053 0  -0.9101514793853021 0.1952524751189772 0  -0.8915043552441708 0.1880691174171235 0  -0.9047311546387078 0.1800619233557348 0  -0.905262219148123 -0.02731398764556849 0  -0.9119715033478218 -0.01618304483424925 0  -0.3081358437876583 -0.610256553929218 0  -0.3258605799527284 -0.6113131433013754 0  -0.3163974183662066 -0.6208634152074528 0  -0.3232197542232093 -0.5348256231432427 0  -0.3237215182328203 -0.5136047633847451 0  -0.3139235917896475 -0.5239894548466137 0  -0.8492684185147273 0.1992875702665718 0  -0.8559385810210977 0.177674811179105 0  -0.8687765075469726 0.184187138805873 0  -0.728060029105619 0.1383532451672887 0  -0.741128587997183 0.1550151917024274 0  -0.7276197325206186 0.1521546271538961 0  -0.5971107149694774 -0.6634803250708311 0  -0.5918455381856423 -0.682416301703765 0  -0.6082534789368651 -0.6763990821683107 0  -0.396725440898855 -0.1519703401282805 0  -0.4104371827951445 -0.133868726138934 0  -0.3972733285770131 -0.1381413162002954 0  -0.5313562861782688 -0.2239905329534456 0  -0.5153700548005785 -0.2370956098128962 0  -0.5175757792910456 -0.2234833207412842 0  0.1998885613818455 -0.719881203324387 0  0.1791866553158176 -0.7141503672877064 0  0.1927451572152915 -0.7054289287094462 0  0.2186800033166231 -0.8191788169663616 0  0.2032157150374902 -0.813121540979967 0  0.2072535379238019 -0.8255818193647165 0  0.2414103301756356 -0.92739187646861 0  0.2491415463735631 -0.9038029612933189 0  0.2622058181501192 -0.9184429695984657 0  0.18200964817054 -0.6609018515558629 0  0.1922004644123977 -0.6733942575134109 0  0.193971927905294 -0.6511896247090129 0  -0.6971105354671471 0.1433776089899524 0  -0.711620043974397 0.1309736906541506 0  -0.7139479939082792 0.1492595713248444 0  -0.4742086889051661 0.02191605504535118 0  -0.4556609281987127 0.02780261596796142 0  -0.4603407008753569 0.0136477533614621 0  -0.503089969727366 -0.5002286202978036 0  -0.5153376600092513 -0.5060935135397554 0  -0.4973073285986818 -0.5119076209237294 0  -0.5493674212449793 -0.6167521077062157 0  -0.5538695603447258 -0.6362394905496497 0  -0.5381785633148709 -0.6311860385671128 0  -0.0642757244519743 -0.5016464801886645 0  -0.04634905954412076 -0.5055606439892932 0  -0.05237140948348965 -0.4907883293784542 0  -0.1391386583415753 -0.4334208548196476 0  -0.116579206551392 -0.4371409490012938 0  -0.1258242415384762 -0.4229420983195344 0  -0.3373191487226518 -0.4148254352631537 0  -0.3327790302634759 -0.4021578290298721 0  -0.3234178037099931 -0.4170503842330612 0  -0.5826551161329542 -0.2908767506068596 0  -0.5637260729021764 -0.2995111145082768 0  -0.576852903364983 -0.3056964271988254 0  0.04946363666164275 -0.7984711774280144 0  0.04455873955501716 -0.8174055183789329 0  0.0356181409437623 -0.8004268221184964 0  -0.4025723161703824 -0.1775418802530583 0  -0.4039097645815507 -0.1966439938975539 0  -0.3937193344232368 -0.1877596062583659 0  -0.3858133131623993 -0.2304236245869996 0  -0.3688397085561013 -0.2322406704940604 0  -0.3786021019549677 -0.2432478502830346 0  -0.860129040370187 -0.2154598057463551 0  -0.8399355080137733 -0.2134768346661549 0  -0.8506499588074243 -0.2026051015024356 0  -0.8811565566075289 -0.3205211056373406 0  -0.888678768866541 -0.2977301432344055 0  -0.8746750687215392 -0.3096897513647282 0  -0.07913980911150678 -0.4593082946448327 0  -0.09594338963686491 -0.4736613565334439 0  -0.0795550952527693 -0.4758348768995708 0  -0.1908008792077115 -0.840972332518844 0  -0.1946327712052833 -0.8583769871989443 0  -0.1813880823319827 -0.8521688500603829 0  -0.1297968725981693 -0.6507077131885561 0  -0.1497285939057602 -0.6383340225880038 0  -0.7548095759814673 -0.1140179552511683 0  -0.7741895543916157 -0.1073721804973605 0  -0.7586574616467261 -0.0980261167307552 0  -0.750247807274843 -0.1875998735323899 0  -0.7666034997707613 -0.1949651039918936 0  -0.7662880177871074 -0.1811680560606865 0  -0.2681875000252676 -0.6941380875750801 0  -0.2765883353399147 -0.6788079317570099 0  -0.2608680456287478 -0.6801601874665426 0  -0.230292970792703 -0.7751339748192955 0  -0.2128582940451086 -0.7747234536788783 0  -0.2201957478740911 -0.7872366391852065 0  -0.8204162199236203 0.4568455867392173 0  -0.8106247903671376 0.4398495434528401 0  -0.8039789594231962 0.4605878718638335 0  -0.7737639899725288 -0.02707871250635328 0  -0.7938130751553454 -0.0285149061028158 0  -0.7859400024306448 -0.04528845677796786 0  -0.5962839453210044 -0.1758071723837879 0  -0.5967266862237394 -0.1903352247698383 0  -0.5832945815518484 -0.1765616455304951 0  -0.05676668381562631 -0.8858042684313356 0  -0.0754505708584072 -0.8904767716810249 0  -0.06867265696558422 -0.8778877631516915 0  0.03782146448367329 -0.9351
[...]
<PointData  Scalars="f_3735-2"> 
<DataArray  type="Float64"  Name="f_3735-2"  format="ascii">1.4140154518271281e-01  1.5256384235103984e-01  1.3848953967257202e-01  1.6421316382569659e-01  1.8165612145000501e-01  1.7273779567665504e-01  2.7906121839598930e-01  2.9271125699614448e-01  2.8370203697307289e-01  1.9143551242032966e-01  1.7000393458514812e-01  1.7793256339637090e-01  2.9994703839845499e-01  3.1473164773002132e-01  2.9988260701215325e-01  9.8263287839560148e-02  8.2534053942240601e-02  8.8800610404943789e-02  1.2102485406223046e-01  1.3138845253732220e-01  1.1418356027249729e-01  1.5512050927595039e-01  1.3197762862873844e-01  1.4062024779102641e-01  8.6126007824933640e-02  1.0770345613130061e-01  9.7327493491913442e-02  2.1197527283187265e-01  1.9469996804926670e-01  2.1045373159058137e-01  3.8836493749503459e-01  3.6677103630802621e-01  3.7368279816746791e-01  2.2081243654606272e-01  2.0603007836453868e-01  2.0332021399097061e-01  4.2711300831731380e-01  4.4074202727501349e-01  4.2079107906769736e-01  1.5026953584757377e-01  1.5174821469104610e-01  1.6390073510135553e-01  1.6014110171272355e-01  1.4423727927583155e-01  1.4534109723281402e-01  4.4341091551558837e-01  4.2237429809543253e-01  4.3717756194888446e-01  4.6801173413532862e-02  5.2944951796813841e-02  6.1070241756235329e-02  2.0623562140999102e-01  2.2490588749445908e-01  2.1181827925336896e-01  1.6898636417596533e-01  1.5604571674936957e-01  1.7218774669108147e-01  2.2931895761990118e-01  2.5064351312334593e-01  2.3411324194572111e-01  1.5101495606575294e-01  1.6397985279234617e-01  1.4704697751588150e-01  4.2384595238443462e-01  4.3611791216208168e-01  4.1973296078910760e-01  3.4901910847553630e-01  3.6247327108573041e-01  3.4174998849233729e-01  7.0415390997831506e-02  8.7545529225258864e-02  1.0045752856724004e-01  9.2223374032362526e-02  3.7858441165598017e-01  3.6116713375855092e-01  3.8361946398976032e-01  9.0656326410343727e-02  8.5318539671164123e-02  7.5617717536492893e-02  1.3652172211037905e-01  1.4528677820566713e-01  1.5151375220045235e-01  2.8094190218465215e-01  2.6264877304705420e-01  2.7936139756979211e-01  6.8824392174665391e-02  5.2776301311854505e-02  6.3152530597885587e-02  2.0231993196602904e-01  2.1158992842111224e-01  2.1546237968057780e-01  1.7361637121042642e-01  1.5957625721741123e-01  1.7301482153828965e-01  3.4133233679811475e-01  3.5254439277270666e-01  3.3020155898686893e-01  1.6201209135151709e-01  1.4633553319997514e-01  1.3133711270217963e-01  1.4499603319830992e-01  6.1343037455874727e-01  6.1701284852534244e-01  6.0381657423709945e-01  1.7361603006108284e-01  1.9208437636679943e-01  1.8339068953692161e-01  1.0587576239738726e-01  1.2965785296004470e-01  1.1526530829110596e-01  9.8113748513159529e-02  1.0784200927337513e-01  1.1022898537359002e-01  1.1431492585948100e-01  1.2208587065144209e-01  1.0492250696336787e-01  5.7185804907699045e-01  5.6436128374533512e-01  5.7595054665720735e-01  6.2090209350891774e-02  8.0566526035852140e-02  6.9853169133877693e-02  8.5775956799666084e-02  7.9644171267960709e-02  3.0691048473207994e-01  2.9765608874230826e-01  2.9349484810517529e-01  3.6617245805420767e-01  3.8392720173471434e-01  3.8020659546116470e-01  1.1777706897303675e-01  1.1592618215370691e-01  1.0244368311222231e-01  2.4853435055860323e-01  2.3226312403325300e-01  2.4620645433296759e-01  9.8214938693347562e-02  8.7966111840751954e-02  8.1994913185539503e-02  5.5306092292552400e-01  5.4727158271092491e-01  5.5649207030324421e-01  4.1397933113833812e-01  4.2312115400253619e-01  4.2645246398480835e-01  2.4246012653750249e-01  2.5340330196135330e-01  2.5846464758199766e-01  1.4159674999437163e-01  1.5114838703672662e-01  1.3833764292684528e-01  3.6750848592149825e-02  5.5983067051374714e-02  3.9648746598954995e-02  3.0502207022861344e-01  2.9001354764435244e-01  3.1113813062307266e-01  2.7840732804241553e-01  2.6634386474454741e-01  2.6041500864617562e-01  5.0981875996154402e-01  5.2588331010513978e-01  5.2233156436769135e-01  2.8066582179445881e-01  2.6765400732267719e-01  2.7636466719432995e-01  1.6321524127714085e-01  1.4580520565353192e-01  1.5973681360882644e-01  4.8161221895120909e-01  4.7975064670719136e-01  4.9271153358645497e-01  5.2707362365399979e-01  5.2951501681824309e-01  5.3910459661369570e-01  4.5445100463797533e-01  4.6636316390766525e-01  4.6096966306799897e-01  3.3972934848904601e-01  3.5267922589660794e-01  3.3805976696038731e-01  1.8906559178840915e-01  1.7044539711201298e-01  1.8789394276993790e-01  5.4019829857894508e-01  5.3221334472502624e-01  5.4341741610174077e-01  5.3213078332943120e-01  5.4370972271924545e-01  5.3155015907648595e-01  1.0384454461117194e-01  1.2326143463908995e-01  1.1563462601057245e-01  5.5819600844783539e-02  5.6157781409232700e-02  6.4865427749025109e-02  5.1751525023805767e-01  5.0212299920961945e-01  5.0282532589973916e-01  1.2737198131930563e-01  1.1018099121580063e-01  1.1873767115604036e-01  3.2729371469158874e-01  3.3528230204160669e-01  2.2595581162192574e-01  2.0752925203828396e-01  2.2433271637039678e-01  2.1587523964844818e-01  1.9806367528641128e-01  2.0174232735186501e-01  2.4543236548396266e-01  2.5675134070984690e-01  2.6131141045985179e-01  1.8043284856012765e-01  1.8567974979373011e-01  1.7163901686779112e-01  5.4476537574848875e-02  7.0109601543245303e-02  6.6084471826117167e-02  2.1495685949298271e-01  1.9480827302486348e-01  2.0188127307981804e-01  3.6943548758462402e-01  3.6470679703698022e-01  3.8155737497176173e-01  1.0297833951876664e-01  9.7144337490225649e-02  1.0975824448740275e-01  5.7360616803654819e-02  4.8518690895956069e-02  6.2566835291386930e-02  1.2044315263750988e-01  1.1908271371440358e-01  1.2145633146710899e-01  1.3409404708848682e-01  5.6810793714344210e-01  5.5471769599125687e-01  5.5531580141827885e-01  5.1951534185518156e-01  5.0306731266671600e-01  5.1772879786488935e-01  4.5675428364174103e-01  4.7220266568709329e-01  4.6682882763076566e-01  5.0411828976793882e-01  4.8727861318323401e-01  5.0038788964127556e-01  3.0697561768925485e-01  3.1278705286522906e-01  3.2189178467396656e-01  3.4876943834270707e-01  3.5734690944849407e-01  3.6103753615645495e-01  5.1034467370197778e-01  5.2422373010602041e-01  5.2270805621314709e-01  4.3379760336156348e-01  4.4495867972245179e-01  4.5108381452462409e-01  5.4745035414962739e-01  5.5000515969384400e-01  5.3984139651789775e-01  2.9968927093665065e-01  3.0114717030148919e-01  3.1491379444103290e-01  3.3399950342170792e-01  3.1492863060142545e-01  3.3337908829078938e-01  3.6276975189949390e-01  3.6616967281997326e-01  3.7606437715578850e-01  2.5856887131228123e-01  2.7446448289732778e-01  2.5750440246932554e-01  1.1237564609444080e-01  1.2758451107932228e-01  1.3174521828416411e-01  2.0964480930240567e-01  2.2606683519346588e-01  2.1482613241514992e-01  1.4195301908404914e-01  1.6525555830780736e-01  1.5625186055567900e-01  2.8340424940245801e-01  2.8164821788754424e-01  2.9099223060561380e-01  2.3408047365336113e-01  2.5326312302493748e-01  2.3609392193459500e-01  3.7185086191422140e-01  3.8113866916435818e-01  3.8608484575926982e-01  7.2090103680515549e-02  7.5837367323560070e-02  6.0093584065153312e-02  1.7822199876396611e-01  1.7250807837526982e-01  1.6269572528655599e-01  3.0038795006705793e-01  3.0715421577384794e-01  3.1249418954571939e-01  4.4211032355848850e-01  4.4869159285897237e-01  4.3629652021628429e-01  5.0458908450337056e-02  5.3475127325911184e-02  5.9353610554750434e-02  7.2957401647747569e-02  8.5879971286350221e-02  3.5245677107162443e-01  1.3145930908198250e-01  1.3712793100763251e-01  2.0173347116131124e-01  2.0920049338089586e-01  2.4091311378582297e-01  2.5883572343959299e-01  2.5621298273041992e-01  6.4746326644420293e-01  6.4318479538267215e-01  6.5593916161042043e-01  2.3144123563256955e-01  2.3620691050477333e-01  2.5136704697242279e-01  1.2640309165708000e-01  1.3949988453246856e-01  1.3469994780043665e-01  7.6222554863986755e-02  6.5161692152253564e-02  8.0593520085797399e-02  1.0724420137638536e-01  8.9989569803830022e-02  5.7114766145994145e-02  5.2611241814844598e-02  6.4220360837824272e-02  9.4965120535666414e-02  6.3800498618925797e-02  4.9506171454156887e-02  7.0269529199227118e-02  1.8518713172690310e-01  1.6922538938220991e-01  4.0438314086270566e-01  3.8620807039524196e-01  3.8799245117969455e-01  3.6570751739965923e-01  3.7236177049789410e-01  6.0053017371837727e-02  7.1619343093098628e-02  7.5845270023074757e-02  5.1858660855769467e-01  5.3440404514170103e-01  4.0649697546201380e-01  3.9688042073065566e-01  4.0968529080742139e-01  5.9272458896399405e-01  5.9257129487439408e-01  6.0102071486314834e-01  4.9994420169743664e-01  5.0275068013333557e-01  5.1483951862631361e-01  5.3185994099852085e-01  3.3797397275115257e-02  4.4261381750208995e-02  2.9121175223982346e-02  8.9953283744123966e-02  1.0980231823626914e-01  1.0390737416308377e-01  1.7874631801027821e-01  1.7530187857679633e-01  1.9280142533110498e-01  2.3109242176655712e-01  2.5225182242903676e-01  2.4775273614025276e-01  1.7887658848156821e-01  1.9687746240230894e-01  2.0879159532235939e-01  1.8935318149917119e-01  1.9213997203410582e-01  5.1261040295782510e-02  3.9872025499097866e-02  3.7619605616931451e-01  3.9373781368749755e-01  3.8870801487059781e-01  3.2121153379510059e-01  3.1749208359380143e-01  3.3830358925302700e-01  2.1228818699004709e-01  2.3138960769587674e-01  2.1397678631863098e-01  9.7153231919104674e-02  7.6899040879871067e-02  7.9235779449472216e-02  8.6725500213277990e-02  1.0260590749272178e-01  9.3168138497801922e-02  1.5334747456060935e-01  1.6630071245959085e-01  1.5312439820594495e-01  1.9675377447367765e-01  1.8509993750907916e-01  1.9516340396329424e-01  2.1278495019038099e-01  1.9826532214769452e-01  2.0293268171238488e-01  2.8526214864132066e-01  2.8011936553517952e-01  2.7346133727520333e-01  1.1581335670468249e-01  9.7545848629190940e-02  6.2368144053179773e-02  6.6154477097069814e-02  8.0179498918865583e-02  3.3125436351650178e-01  3.0946173626826412e-01  3.2151982973668453e-01  1.8855289097052813e-01  1.8513168871498628e-01  2.0350046387498735e-01  2.2904957577687279e-01  2.3902230038476099e-01  2.3751225809108487e-01  2.4095185642621267e-01  2.5210980612945683e-01  3.2847275126940234e-01  3.4818393983535650e-01  3.3225119711165013e-01  1.9716916609288143e-01  2.1033175646267041e-01  1.9861111394965891e-01  5.9840224159849076e-01  5.9411468037348969e-01  6.0471443167868344e-01  5.6485021349585030e-01  5.5144184680036734e-01  5.4893068269028844e-01  5.6510970344135403e-01  4.9155302045181655e-02  3.6784581332592867e-02  3.7006833171646242e-02  8.2975954069825344e-02  6.6422527842540102e-02  6.8984452668024623e-02  2.4475292923109224e-01  2.6510436394881798e-01  2.5738376965251963e-01  3.6410861209822670e-01  3.6023885984402321e-01  3.7357250750821724e-01  2.6095404993665061e-01  2.4376011849472484e-01  2.4971031222953555e-01  3.6224272663291823e-01  3.6711326934964283e-01  3.5015072266365699e-01  6.4491334240632148e-01  6.4801896010556070e-01  6.5479664615293531e-01  3.8898149520462894e-01  4.0682821368588573e-01  4.0548667922702170e-01  1.0625819422519527e-01  8.7614183257912426e-02  6.9556488819410858e-02  6.7631826637869458e-02  5.2196938167522455e-01  5.2030590704236035e-01  5.3303416702099482e-01  4.2545370739416588e-01  4.3242747498752143e-01  4.3933108309906460e-01  2.1002232752147815e-01  2.0932923935081066e-01  2.2718441894540575e-01  3.4319242912821457e-01  3.2840926395121217e-01  3.2273180419206582e-01  4.5527389279423269e-01  5.0831490183972305e-01  2.5105815101929735e-01  2.5089644223404856e-01  2.3964263802841032e-01  3.4520900376978292e-01  3.5416109800695167e-01  4.4304543018733300e-01  4.3010820912440317e-01  4.3468961636664394e-01  4.4369845433604710e-01  4.6376529350019791e-01  4.5232998805661950e-01  4.5243558882940588e-01  2.9547841984956441e-01  2.9274225387474268e-01  2.8484012618406918e-01  4.3830878127703121e-01  4.2234781166694801e-01  4.2311373128320873e-01  3.7613135276898291e-01  3.6684708732721222e-01  6.3307905689173577e-02  8.1002272306820125e-02  8.4185282842404729e-02  5.4500899173765605e-01  5.6191378183135265e-01  5.5957656880644147e-01  5.4204996223357393e-01  5.5892572916387184e-01  5.5562753695259115e-01  1.6384934433953471e-01  1.7812671987351497e-01  1.6533711384848682e-01  8.2792656628657091e-02  7.7263026239639598e-02  9.2388829079338583e-02  2.1930952568810849e-01  2.3324773352443420e-01  7.4199982295355030e-02  9.2849157550058084e-02  2.8727428418535750e-01  3.0555125929279897e-01  2.9332162239342419e-01  3.0794163449507250e-01  2.8797389964361225e-01  9.1523524872204207e-02  9.6145046032274556e-02  8.2300098447629047e-02  2.8086572423843104e-01  2.1474010816404460e-01  2.0182095843107650e-01  1.9556316328967238e-01  2.8059812883918556e-01  2.6491275916166246e-01  2.8944409109890457e-01  1.7252133747208578e-01  1.6051692399453260e-01  1.7389084690361800e-01  2.3504566294802337e-01  2.3669616162477253e-01  2.8216467871983031e-01  2.6240744316958114e-01  2.6894987830310452e-01  2.7379335671431010e-01  2.7362114287661921e-01  1.7302421335846008e-01  1.5716973951755170e-01  1.5901251208623793e-01  1.4665452424929695e-01  1.5508799191419087e-01  2.2357476425174014e-01  2.2578623410088600e-01  2.3615484535927123e-01  1.7191917467748899e-01  1.6468874639369166e-01  1.6004700531237340e-01  1.5174630006254222e-01  4.5302384026704873e-01  4.3546700915623793e-01  4.5176382484462868e-01  2.0793256033253379e-01  2.2515871452498193e-01  2.0281741098836312e-01  2.2291249017022549e-01  2.3120601763252815e-01  2.1916011352984444e-01  5.7729638855407817e-01  4.8679826386120939e-01  5.0318582720618665e-01  5.1444657397653837e-01  4.9833805813428472e-01  4.4613615337838308e-01  4.2762702604961889e-01  4.4875430770878089e-01  4.0598328420700180e-01  3.8717626971821911e-01  3.9609678217896965e-01  4.2949728419732242e-01  4.4498515059839838e-01  4.3605912511399558e-01  5.6002396442504387e-01  5.6157571180450461e-01  4.3617543508381634e-01  4.3244025164264077e-01  6.4652200710417621e-02  5.8039932368574056e-02  7.8043908494059080e-02  1.0407873544771418e-01  9.0860413061105053e-02  1.0922000667483148e-01  7.9201816977315528e-02  5.7308427382189074e-02  6.9816697199640482e-02  4.6391053784113179e-01  4.7714681389745239e-01  3.7492193412221536e-01  3.8193370914412655e-01  3.8900928406319968e-01  2.2635551686736852e-01  2.4587683249961950e-01  2.3937606916545406e-01  2.7699971616953817e-01  2.5541414594397943e-01  2.7224837469202179e-01  8.4263216098769481e-02  7.5991428603972649e-02  8.9990378722218642e-02  1.1835917045788874e-01  1.0886863241575723e-01  1.0649139687994115e-01  1.5047788222906250e-01  1.6815977963458334e-01  1.6650720336901706e-01  4.7999982797202090e-01  4.9168107931733179e-01  4.7025816667904607e-01  4.6662436673495689e-01  4.8635497106480963e-01  4.7841732652082930e-01  3.4121172178907766e-01  3.4835995214280929e-01  3.3169246138356862e-01  3.3527078756380324e-01  3.3430442040960950e-01  3.4843884869982927e-01  1.2557568336171615e-01  1.2973618102086665e-01  1.1377896131570540e-01  1.1694544923500949e-01  1.1491512432674475e-01  1.0555388935438853e-01  8.0502955780551985e-02  8.9601533273545170e-02  8.6570791667048341e-02  2.0418800494461289e-01  2.1656775859366326e-01  2.1865816795986640e-01  1.8529552863668589e-01  1.6758888449234374e-01  1.8053022854890755e-01  1.4371500850432765e-02  1.3272480712502917e-02  2.5148329079986029e-02  4.1798972008245561e-01  4.2552375982700374e-01  4.1178908573520251e-01  4.6415406282413457e-01  4.4956624286949115e-01  4.3800803418396400e-02  4.2246664841090978e-02  5.5525384004008672e-02  3.7354850689916702e-01  3.5399988075948235e-01  2.4715087582520992e-01  2.6211585535374843e-01  2.3732627450610616e-01  1.0658497311445263e-01  9.9486822239764849e-02  1.8058049978166454e-01  1.7627396664811026e-01  1.6917424776375903e-01  8.1473833904124424e-02  6.9083083064554615e-02  7.0150832526819390e-02  1.2383736979022342e-01  1.2964940719912962e-01  1.1307839419482575e-01  2.4627323641532553e-01  2.6946445042550043e-01  2.5836894776423663e-01  1.6759485846816602e-01  1.8256530141338509e-01  1.6182539672531812e-01  5.1292117964916867e-02  6.8342698193261012e-02  6.8722449491739529e-02  3.9917261145460020e-01  4.0139534681336364e-01  3.5615009213026300e-01  3.3337239670934044e-01  3.1892751379102996e-01  2.7561057569216607e-01  2.6370897604766846e-01  2.7969115099959063e-01  6.8560603026426567e-02  7.0386200896555923e-02  6.1818862294878665e-02  1.3530147670283693e-01  1.4427088214965422e-01  1.3160340540667351e-01  1.8330796722589104e-01  6.2386714890745293e-02  5.6385056969377720e-02  7.4850657414549313e-02  3.4493806733107507e-02  4.0843025732682878e-02  2.5138169799130763e-02  3.0985660923790074e-02  3.6379424388279721e-02  1.7266724783039081e-01  1.9321319753942418e-01  1.8692650483872122e-01  3.2737172696961375e-01  3.1680772433739529e-01  4.6410593071505235e-01  4.5188305685112384e-01  4.6473755204297679e-01  4.8275012040327248e-01  4.6070125077355678e-01  4.7023816558313813e-01  4.3302130963669561e-01  4.4500932558729117e-01  4.4939522504339285e-01  4.9021362088211928e-01  4.7896146911212567e-01  5.0148762246539624e-01  4.2698040692081995e-01  4.2910437198213436e-01  4.4027159729628251e-01  4.1763448762217026e-01  4.0472867557294773e-01  4.0375174370535022e-01  5.3322708336949032e-01  5.3579495549629541e-01  5.2685966207627233e-01  9.2914373708574638e-02  9.3477453633582883e-02  1.0248665898821688e-01  8.3680465105709381e-02  5.8739756294208989e-01  5.8191987995003280e-01  5.9658196083954840e-01  6.0116848782342791e-01  6.1049524246470432e-01  6.1873031395127953e-01  7.5246172243714243e-02  9.4503663001611726e-02  8.2075992995698163e-02  1.4543113498501564e-01  1.6335975168173539e-01  1.6142240996491591e-01  1.7956999400809517e-01  4.7507679239775814e-02  3.1823007488850009e-02  4.1514939610929377e-02  3.5353772222588849e-02  4.8988485786106858e-02  4.6864047306842009e-02  1.1400437158517908e-01  1.2978391301000811e-01  1.0839862556875743e-01  5.7864014190579593e-01  5.6807841534194692e-01  5.6326195576926963e-01  5.8778520585635696e-01  5.6884476232394421e-01  5.9652772476283900e-01  6.2142763335853834e-01  6.0988408684010509e-01  6.2563551191674505e-01  5.9985919403718246e-01  5.8555853765021748e-01  5.9677517252959666e-01  3.3173934670230587e-01  3.3055668184452952e-01  3.1501226711442198e-01  2.7519204035768235e-01  4.9364195947346790e-01  4.5370704930703909e-01  4.6399297526012551e-01  4.6632276466195655e-01  3.7236489712516702e-01  3.9029945576998443e-01  3.7606182987846998e-01  4.0392788897695864e-01  4.1909309868344963e-01  4.0450609849611896e-01  0.0000000000000000e+00  1.5664817440813248e-02  1.0617598077076769e-02  2.5971253035131525e-01  2.8213363896073768e-01  2.7977509382572679e-01  1.2966856647439348e-01  1.1780138310212787e-01  4.1462260815895807e-01  4.0617496490330718e-01  3.9917475793439489e-01  3.7168673279106407e-01  3.8772292096221866e-01  3.6282629140827588e-01  3.7661047853613366e-01  3.8541787132377153e-01  1.1523852464603160e-01  1.2647468363954614e-01  4.8645066953715493e-01  4.7268252067656208e-01  4.8802318563745067e-01  4.4545149047376192e-01  4.5475902308093996e-01  2.7919553543663200e-01  2.8386006312318601e-01  2.6859595308559636e-01  2.4422542872985997e-01  2.6352889113939948e-01  2.5521056994311347e-01  3.0851556910596273e-01  3.2811781773135701e-01  3.1604596417073205e-01  3.6406673078711649e-01  3.8380130602816681e-01  3.6799198211914452e-01  5.1121334925124240e-01  5.2351035255238720e-01  5.0907819833796131e-01  4.2338361910850003e-01  4.2074578344772712e-01  4.3923863515375566e-01  2.4905718893437098e-01  2.2929431080568888e-01  2.3430226453409692e-01  1.5532194497889454e-01  1.3930429515311979e-01  1.4223593045724731e-01  2.6925608770956777e-01  2.8693857616127233e-01  2.7132842674238994e-01  2.0908590661569210e-01  2.2368794083385862e-01  2.0894111652568401e-01  1.8789574667800887e-01  1.8189622920858417e-01  7.9965436567073445e-02  9.670904417