<?xml version="1.0"?>
<VTKFile type="UnstructuredGrid"  version="0.1"  >
<UnstructuredGrid>
<Piece  NumberOfPoints="4416" NumberOfCells="8583">
<Points>
<DataArray  type="Float64"  NumberOfComponents="3"  format="ascii">0.8086541599380677 -0.2048763455233037 0  0.7918113862977368 -0.196559194867078 0  0.8149785941601437 -0.1896689371149581 0  0.7914858187768374 -0.1777776074813666 0  0.7877255216983492 -0.1533892286670211 0  0.8069338303502935 -0.1686538422919474 0  0.899022479595791 0.184304626635858 0  0.8862858957216577 0.1766594759701586 0  0.9016882443091289 0.1699501980853346 0  0.7616059773365476 0.3829773753860564 0  0.7658507749308791 0.3677601052762543 0  0.7492922355656014 0.3783917785660174 0  0.8219216351054168 0.3391921289599656 0  0.8057831535880789 0.3421843263224907 0  0.8119355413089588 0.3303496391145325 0  0.7220264744090197 0.5106119967472164 0  0.7118244053482322 0.5006472799438278 0  0.7327148582315924 0.5025004234449463 0  0.7183233223908293 0.4197070045010598 0  0.7057584358496306 0.4349324541631816 0  0.726969503648605 0.4399632025911126 0  0.4948809589783702 -0.7587214418314938 0  0.496000103103479 -0.7738609514314374 0  0.5074423606748083 -0.7658265328827868 0  0.305525380277092 -0.7064747437281449 0  0.3242100747187151 -0.7108177388656757 0  0.3171785798323093 -0.6913478703475279 0  0.4488738863096119 -0.6684512714941455 0  0.4436916993000088 -0.6519953491285186 0  0.4591226074127259 -0.6551106812039649 0  0.5078173218097225 -0.3783715883926873 0  0.5307892766164537 -0.3869257534582856 0  0.5133592726395738 -0.3911729153247172 0  0.6561158690357738 -0.1968942793676337 0  0.6457765788067777 -0.2093472640635398 0  0.6396359273363263 -0.1967959253540099 0  0.6889502491783563 0.07736416214077002 0  0.6671582276918092 0.07660977837604978 0  0.6753490275496411 0.08895734935043197 0  0.687616450849042 0.02325007349824202 0  0.6712990797282571 0.008824149462458405 0  0.6725728959978043 0.02440223847291031 0  0.7169692747045605 -0.1057923845585227 0  0.7112001141028529 -0.0878833184588948 0  0.7254935728113139 -0.09316263743262652 0  0.4901028402188922 -0.1326423951134703 0  0.4815761299901051 -0.1176906656982198 0  0.4734209463363759 -0.1323442188692417 0  0.4803499583063567 -0.3770557387445882 0  0.4748287702150885 -0.3923209366018173 0  0.4679539368639857 -0.3693813222876973 0  0.8858605506329501 0.04738074419282674 0  0.905286961275223 0.04850008148780963 0  0.8951741028657045 0.03871552820532433 0  0.7231334942947516 -0.3370016299284245 0  0.7364734465641689 -0.3532149783708192 0  0.7187381914250279 -0.3516521066648289 0  0.6372409325910694 -0.3190952936354615 0  0.6249735691563155 -0.3068124543837845 0  0.6229608057093182 -0.3278552369158761 0  0.9094424879649575 0.1575797645502882 0  0.8893616474035989 0.1621264567010903 0  0.8968511734235574 0.144656849416264 0  0.6843826752355642 0.2557281123460899 0  0.6863711605470992 0.2323238674704284 0  0.6988559565081479 0.2451712039685951 0  0.6077570018890249 -0.5902214901230238 0  0.5866761278715384 -0.5971138466426643 0  0.5917830673075289 -0.5770488417915153 0  0.5835151034696938 -0.6553145226126417 0  0.6012417315719338 -0.6385630945056741 0  0.6013599839300979 -0.6564432452254697 0  0.8926779853137201 0.001262462309081169 0  0.8723123703894097 -0.007708744508678273 0  0.8761740029538458 0.01112661322548586 0  0.5891582587838761 -0.03907081304593805 0  0.5865973446499904 -0.05440619937688938 0  0.57379572452394 -0.03593842880853319 0  0.4182940788323986 -0.6209785966345436 0  0.4240417305924132 -0.6062172653809482 0  0.4095860178904412 -0.6073829991665254 0  0.3520883826751479 -0.596848016048694 0  0.3641516027186824 -0.5866354982165836 0  0.3609044197925572 -0.6097160011064797 0  0.1446577576694488 -0.4601058378212226 0  0.1509948197442019 -0.4745489693549051 0  0.1389361877994288 -0.4806466395259887 0  0.4351752040421797 0.1418387703811541 0  0.4239012105807405 0.1553984738062708 0  0.4187338624903298 0.1360383157437807 0  0.2634173602544012 0.04757607362056596 0  0.2619685351442633 0.03368958928835625 0  0.2768227066253919 0.04754308770016498 0  0.1295992343753243 -0.06800391727833612 0  0.1302708542622769 -0.04986712015831914 0  0.1458942031950296 -0.06702505250834456 0  0.5702538915569604 -0.5440667582386185 0  0.5562107941347688 -0.5480775290225948 0  0.5728828268081656 -0.5576925889962792 0  0.5888516064775238 -0.3283453996056626 0  0.575606044142866 -0.3120947093795647 0  0.5735190838695526 -0.3281491864609066 0  0.4119642880149134 0.0905133690417696 0  0.4165591401855071 0.1042341312423811 0  0.4258517272561795 0.08781211093361772 0  0.700435175365253 0.1904195782392997 0  0.6853546659733943 0.1943047116283401 0  0.6964167548226444 0.2054175785628229 0  0.7788014208742087 -0.4654596820185557 0  0.7889566762626343 -0.4874253993935623 0  0.7962834792938428 -0.4659797064031662 0  0.2488703343281347 -0.3431616876654588 0  0.2457653357558031 -0.3565599181584344 0  0.2351339992895339 -0.3396087218544856 0  -0.02388501001495511 -0.3761886025244691 0  -0.02520830685259722 -0.3596219854914644 0  -0.009841466502368206 -0.3761271449225015 0  0.4769500502411276 0.4601382362290277 0  0.4573774645635899 0.450383239819921 0  0.4718628551966688 0.4439591268524888 0  0.4917794376711814 -0.1972555978082625 0  0.505928721504354 -0.2025986265763232 0  0.4998720686971186 -0.185943852427172 0  -0.08606257651973936 -0.05462704524659229 0  -0.1012937921881515 -0.05155163091806127 0  -0.08033031954538288 -0.04259436282840512 0  -0.008757415203316868 -0.3572614604688491 0  0.1390106270926973 -0.2166637149856598 0  0.162488089572871 -0.2150473491996736 0  0.1501399086167546 -0.2070033694413123 0  0.3546302237366451 0.08822542791995883 0  0.339187523772329 0.09302479289057097 0  0.339490117720677 0.1058779006803005 0  0.4641641243214657 0.1404965408204731 0  0.4501230861403721 0.1509604759903427 0  0.4640449933112752 0.1549891404683678 0  0.9375791472553948 -0.1864960877863716 0  0.9321078918132163 -0.1627389896590795 0  0.9230636988095106 -0.1820014414884678 0  0.9035273404442838 0.02912117334123241 0  0.9127372095510694 0.03805425122008746 0  0.1821993808568187 -0.432828855237157 0  0.1707650651434532 -0.451516588230124 0  0.1696792455571891 -0.4380102376108829 0  0.2818414833765505 -0.7146899593557918 0  0.2889776146008706 -0.6970158068444517 0  0.2931232449816122 -0.7089673717181497 0  0.9137222488843366 -0.2576963259120224 0  0.9057015027734866 -0.2811889513273181 0  0.8937346912723251 -0.2678831177882813 0  0.9103338677751003 -0.1737037616462621 0  0.9166055249651663 -0.1957561526640836 0  0.8957223199904315 -0.1835097671773969 0  0.6153439160541319 0.1468091775802926 0  0.6210361403193074 0.1618572122575944 0  0.6055961342663212 0.1616820449445886 0  0.4284127007223792 0.2073334739376188 0  0.4344423446702795 0.1929709718624723 0  0.441384127835113 0.2088124342236446 0  0.3733320192714619 -0.1535288184028485 0  0.3588657850270981 -0.1693709536260647 0  0.3523760376646541 -0.1489188623019877 0  0.5957916768250641 -0.2405639016829338 0  0.5892094059677346 -0.2571167411237241 0  0.5822754038194597 -0.2447742742864205 0  0.640944308409664 -0.6468990898626902 0  0.6286780359646438 -0.6530178084813402 0  0.6304944656323788 -0.638027734658456 0  0.6943792542447561 -0.4535185031614564 0  0.6939886039530548 -0.4317701590254521 0  0.7085544889647809 -0.442386202779482 0  0.3395295034151978 0.1997868953610595 0  0.332860933289504 0.2141603126880007 0  0.3237444551330791 0.1972480913994478 0  -0.02445926670603867 -0.3985962696400789 0  -0.01067629568164947 -0.3901459876589111 0  0.9328638936949143 0.2834904861158259 0  0.923892162783964 0.2618114543841253 0  0.9424026863443954 0.2668469537148758 0  0.2532792555527151 -0.08270818181828798 0  0.2527473256199652 -0.06881257645970822 0  0.2398420033294085 -0.08314168283965098 0  0.01580864582429657 -0.03602771429562236 0  -0.001090478477742312 -0.04437564348035689 0  0.02207713322976974 -0.05353969486288011 0  0.3549555819878234 -0.3898461680085714 0  0.3433037771540922 -0.3991515624343491 0  0.3453417749947163 -0.3787967693442117 0  0.542551025954475 -0.4123381823102418 0  0.5632508692399043 -0.4164497894042732 0  0.5548627644635375 -0.4045172391839038 0  0.6809334339991457 -0.5117286016482265 0  0.6927611435305472 -0.5028422649107153 0  0.6902811165642302 -0.5232596187934515 0  0.5431713356932504 -0.67212611660666 0  0.5637951900173268 -0.667321633792234 0  0.5513272614973983 -0.6604689648074004 0  0.8132211828214213 0.18985155067617 0  0.7945745271426574 0.1771442148832167 0  0.7886564668281072 0.1910604939362664 0  0.8343988857393589 0.03630759300691505 0  0.8343077824237692 0.05306941785312328 0  0.8244235962369153 0.04463453564755907 0  0.7524299251586728 -0.3276603176381307 0  0.7597291191612502 -0.3080497367078019 0  0.7674874378582565 -0.3193707269833982 0  0.7918776421923003 -0.3432746103646906 0  0.773676601060287 -0.3316202407975498 0  0.7956292529451428 -0.3313181289173188 0  0.5160009804398674 0.1620189138114942 0  0.5025007681083302 0.1680326495180372 0  0.5192955234396179 0.1756717009175724 0  0.5637580283015247 0.1661949965052646 0  0.5772230400874727 0.1737447811213305 0  0.5684034086521395 0.1509466375931399 0  0.34248233031568 0.3329493616732829 0  0.3464069811949507 0.3104407618361972 0  0.3294219393598248 0.3154183666160784 0  0.2789075721072011 0.008698336678611106 0  0.2883735492429315 -0.01037885296491499 0  0.2744984523843805 -0.005376512679016969 0  0.2192430024257987 -0.2196077145036049 0  0.2265157422712907 -0.241728852399874 0  0.2394381050046847 -0.2278431160781132 0  0.5388981429225672 0.08071540287252696 0  0.5518059262219328 0.09246735402205405 0  0.5533616541348916 0.07779399388454947 0  0.3879717717235426 -0.04591948522392839 0  0.3859331780043471 -0.06944056903557713 0  0.3694884519661793 -0.05616640438700998 0  0.7248148686638546 0.0123384709736764 0  0.7245389824530868 -0.007554306157571342 0  0.7100062818456092 -0.0007375141543544406 0  0.7665595508414519 0.0514142974162754
[...]
<PointData  Scalars="f_3411-2"> 
<DataArray  type="Float64"  Name="f_3411-2"  format="ascii">3.1333797995641549e-01  3.4959875391384748e-01  3.0810032346732891e-01  3.5898292404415699e-01  3.7630075248914768e-01  3.3255057837369184e-01  1.5077351873048150e-01  1.7751169377520559e-01  1.5106340519311121e-01  2.7719553428472898e-01  2.8278527963994748e-01  3.0294062646000586e-01  2.0567177755076180e-01  2.3227555162521957e-01  2.2994009943085875e-01  2.1491407486861297e-01  2.4234328489995349e-01  2.0685380488073041e-01  3.1772259770266492e-01  3.2346665738718966e-01  2.8258768186330779e-01  1.7352321935876402e-01  1.4800707585965561e-01  1.4891382719295670e-01  4.4175582294771848e-01  4.1875703896760802e-01  4.5997619861641270e-01  3.7089281607365659e-01  4.0385146734929983e-01  3.8128418412904297e-01  7.1220975863447944e-01  6.6637765620187384e-01  6.8845887920505255e-01  6.1078778625240226e-01  6.2291654290949894e-01  6.4199795063588205e-01  5.9443260005505283e-01  6.3746351446034011e-01  6.1826984771267146e-01  6.0488777327869980e-01  6.3779332916786358e-01  6.3442968533900124e-01  5.3169941424030753e-01  5.4804689972103848e-01  5.1843353732155018e-01  9.4451630664743180e-01  9.6514558931919703e-01  9.7228373499871312e-01  7.5573444846001570e-01  7.4556907783043791e-01  7.8318721014013071e-01  2.0945099637886580e-01  1.7208752947943209e-01  1.9233362874056220e-01  3.8569312272013134e-01  3.4781660370648154e-01  3.8083272372673427e-01  5.5588321360956250e-01  5.8857386383059052e-01  5.7318273391543428e-01  1.4076863449487551e-01  1.7692359447391062e-01  1.6848241376194975e-01  5.2003821770984271e-01  5.3209222259261868e-01  5.0010115315948933e-01  2.8756362992741086e-01  3.0754754948424357e-01  3.2838239276819170e-01  2.2826601715102621e-01  2.2901955493192852e-01  2.0348605375057610e-01  1.9883854995714939e-01  2.3824488123301737e-01  2.3059091860246872e-01  7.9403019478111203e-01  7.9652356241625388e-01  8.2317731417238660e-01  4.8386767646867734e-01  5.0162734700576062e-01  5.1600472709900291e-01  5.9508717779943210e-01  5.9998045061744409e-01  5.6407518614540508e-01  9.8813005475672600e-01  9.6133438829175244e-01  9.5716508378000553e-01  1.0290112917539098e+00  1.0390494507976462e+00  1.0571156971184070e+00  1.2886794253315064e+00  1.2923393682006821e+00  1.2740392608068007e+00  1.3903861158183397e+00  1.3943624011240319e+00  1.3814727599583965e+00  4.0484280542825701e-01  4.1948138416656322e-01  3.8217032848420629e-01  6.3219823280034448e-01  6.7029773439379459e-01  6.5852937310842630e-01  1.0860420533378972e+00  1.0741266198853578e+00  1.0656308906604450e+00  5.2953597251239459e-01  5.5642065584800982e-01  5.2905594653203847e-01  1.7071322210452178e-01  1.3244147702624900e-01  1.4148497203406241e-01  1.0827853973521280e+00  1.0683943183503903e+00  1.0992614002041734e+00  1.1524409767814525e+00  1.1753381318519047e+00  1.1534419915870204e+00  6.5473184812265317e-01  6.9548703861551331e-01  6.8374782827954939e-01  9.0538078782468479e-01  8.7809891380498439e-01  8.9909569453033622e-01  1.4133234522454745e+00  1.4079643156331783e+00  1.4175834642895000e+00  1.1795756416091634e+00  1.2993796238955722e+00  1.2866928592629014e+00  1.3009322324837613e+00  1.1686738777965198e+00  1.1871661112077982e+00  1.1819435697620773e+00  9.8362308295422596e-01  1.0007343979676879e+00  9.7616514208435501e-01  7.9022995511367142e-02  9.7147977056859819e-02  1.0720392328642450e-01  1.7694835183277582e-01  1.5869793430968573e-01  1.0093958244913757e+00  9.8741345356376975e-01  1.0090422830332828e+00  4.4472161536067950e-01  4.7219486193534616e-01  4.4680488338084412e-01  9.1348448975728969e-02  9.3200628301292832e-02  1.2182026811896637e-01  1.3363624750713579e-01  1.1376436557483881e-01  1.5731524186135804e-01  7.1348443470984035e-01  6.9563226885021501e-01  7.2472159673654268e-01  9.9883935822734937e-01  9.9966734819691594e-01  9.7796110254375435e-01  1.1135742897290006e+00  1.1236835757341557e+00  1.1445215933943826e+00  6.9426350566770889e-01  6.9355472715822597e-01  7.1528320035788873e-01  1.6433724274187625e-01  1.7227745352323853e-01  1.9031919154586821e-01  3.2286106506057993e-01  3.4672713266027749e-01  3.1100686972832109e-01  1.1278588249475199e+00  1.1251519099147922e+00  1.1493691613644759e+00  1.1199798919190811e+00  1.1331423875967310e+00  4.4197885169707414e-02  7.1036531157383481e-02  3.5662224889260984e-02  1.2899683832185709e+00  1.2945537233464011e+00  1.3030020493977728e+00  1.4317204108676183e+00  1.4308675143875140e+00  1.4280883791626588e+00  9.1017250982439080e-01  9.1143289703559516e-01  9.3579623440254844e-01  6.1774999302968259e-01  5.8007693465860088e-01  6.0759934381912839e-01  2.7858027430394799e-01  2.7026662046092970e-01  2.5025381436626276e-01  2.5422962969810536e-01  2.3587409840533644e-01  2.6165850744642749e-01  3.1142975549208740e-01  3.5317725078462081e-01  3.5836901135919030e-01  3.1127112065216445e-01  3.0968138130175965e-01  3.3016933000335302e-01  3.4009096802006761e-01  3.4190530709270817e-01  3.1890938427794657e-01  2.5635847925717109e-01  2.9828562357839217e-01  2.5868419782809349e-01  8.8563815663493362e-01  9.0544350998535694e-01  8.7218918414569380e-01  7.9910981729757702e-01  7.7072644148910163e-01  7.9850005951659209e-01  9.9594190391886706e-01  1.0167542164611478e+00  1.0315691452740581e+00  1.2762320034293408e+00  1.2656798512938512e+00  1.2811256729435954e+00  1.2401900505226076e+00  1.2141641015653581e+00  1.2149633557158954e+00  8.7832759445553543e-01  8.5170656538389267e-01  8.5284503415570212e-01  1.1326627913411651e+00  1.1307073440913507e+00  1.1570640586424197e+00  5.3150478284901581e-01  5.3209181525332960e-01  5.6111273310569210e-01  4.4473414693446695e-01  4.7497821304392585e-01  4.4019974755660829e-01  1.0427949538850787e+00  1.0484158588467429e+00  1.0629846178587576e+00  1.1276366929129922e+00  1.1071802834133833e+00  1.1410546985493539e+00  9.4930619539773586e-01  9.6437213721348469e-01  9.7718863017981072e-01  1.3298449034823931e+00  1.3116079940547956e+00  1.3259599086132154e+00  1.3090515341320097e+00  1.2565480284286941e+00  1.2577193353302583e+00  1.2781263680933854e+00  1.1968001697000517e+00  1.2217509119781913e+00  1.2043264830382578e+00  9.4910062313589072e-01  9.5925841540267298e-01  9.3496476662867900e-01  9.2925280935546795e-01  9.0786213721546183e-01  8.9345240275156423e-01  2.7491716842075559e-01  3.1259303021866819e-01  2.7854682470975489e-01  2.7595043079767523e-01  3.1077443978979452e-01  2.9745146807576534e-01  3.5068741300197620e-01  3.6032341581085131e-01  3.8406306302969645e-01  4.6231321251509572e-01  4.9274503029695854e-01  4.6821938862354034e-01  4.0826395022933626e-01  4.0841429837782212e-01  4.4432008193532629e-01  1.4202393218073597e+00  1.4155642371461383e+00  1.4122928722201036e+00  1.1335538218737660e+00  1.1552236705808163e+00  1.1265816738335290e+00  7.5429659427357609e-01  7.7816351126445849e-01  4.5124260412700262e-01  4.9606517227544517e-01  4.7918284811292189e-01  1.0756975005165414e-01  1.4702735317078849e-01  1.3716100788345442e-01  8.2488558126260908e-02  8.7231423220986773e-02  6.5533340249998351e-02  5.0697378955846861e-01  4.8585694625621589e-01  5.2817244690957721e-01  4.4653839899854103e-01  4.7733009034287366e-01  4.5607837128668888e-01  1.2203025373455318e+00  1.2221892137552748e+00  1.2376843589136888e+00  1.1537366802040721e+00  1.3398235001888821e+00  1.3474116912704408e+00  1.3499249483068609e+00  1.2284156420272492e+00  1.2154485737268987e+00  1.2410471383215451e+00  2.3588794815787859e-01  2.1918152824185477e-01  2.1129064650603632e-01  2.3117393860058366e-01  2.5918478401887690e-01  2.2012482442472106e-01  3.7205567660446920e-01  3.4654883112674340e-01  3.4731785869063719e-01  2.3771581420669718e-01  2.4090338469724493e-01  1.2662399453125952e+00  1.2836675865878633e+00  1.2840501673635414e+00  1.2679263029509500e+00  1.2864341689455954e+00  1.1244091207717337e+00  1.1344908901010857e+00  1.1454442917668113e+00  1.1556765431758385e+00  1.1445044361973904e+00  1.2663372525251533e+00  1.2445915500350340e+00  1.2650518613455319e+00  1.2999393728386681e+00  1.3068647010911918e+00  1.2927678489792371e+00  5.6181587592987303e-01  5.4113181294351564e-01  5.1433152758670009e-01  5.4936613468229353e-02  2.7085660834323802e-02  2.6571968238871337e-02  1.4042575748660882e+00  1.4098045191013477e+00  1.4119386225775101e+00  1.3022504938531760e+00  1.2824731719310825e+00  1.2963740035762250e+00  1.3569166095560354e+00  1.3434603598260528e+00  1.3532342522421812e+00  1.3934452143435296e+00  1.3896117592833968e+00  1.4006731854521044e+00  1.3903146070123513e+00  1.3883386260135162e+00  1.3965631670315672e+00  1.4313570572673178e+00  1.4281166904537401e+00  1.4315361314124735e+00  1.2499895881660541e+00  1.2261521050567779e+00  1.2447458457455847e+00  1.2600911257129814e+00  1.2611358878458023e+00  1.2742360566850186e+00  3.0344968352782309e-01  2.6078516569561255e-01  2.7460188367550309e-01  4.2213993796039395e-01  4.4674913956876539e-01  4.0533468344130036e-01  7.9833056285248638e-01  8.1986692610926482e-01  7.7880395834665195e-01  7.3297919520402510e-01  7.4060404326986007e-01  7.1627451614555826e-01  7.0803129357977679e-01  7.2540828302082438e-01  7.0002123790215320e-01  1.1879798980090568e+00  1.1640591257630499e+00  1.1828221041280502e+00  1.1527471624337435e+00  1.1408117620542124e+00  1.1306173862908562e+00  1.0022385150144564e+00  1.0326129898224441e+00  1.0234475094527358e+00  9.1782904985011471e-01  9.4401156543154596e-01  9.3821586036850013e-01  1.3193268255759434e+00  1.3355026786050670e+00  1.3135625955310961e+00  4.9406644509015452e-01  4.9630526164015693e-01  2.7270145494740983e-01  3.1064779598053760e-01  2.8111808580185033e-01  1.0536184681335624e-01  1.4581104722572330e-01  1.4733172771438097e-01  1.6691255721474707e-01  1.2657697881072508e-01  1.4303444974800883e-01  1.8444302294104847e-01  1.9135724842989824e-01  1.0185470129483469e-01  1.4560558329521600e-01  1.3746258253569155e-01  1.2936918511070949e-01  1.6206105746479588e-01  1.3259847298112132e-01  5.2092027164330146e-01  5.4376147524853780e-01  5.1316712110431584e-01  4.1230712539258585e-01  3.6514426692363644e-01  1.0246656304985460e-01  1.0661126562600881e-01  1.3382784462619468e-01  1.6336951982372294e-01  1.6882635364435875e-01  1.4421287866059929e-01  1.0084382306412705e+00  1.0312839787883927e+00  1.0015393409294004e+00  8.5767549571686541e-01  8.8734728732675638e-01  8.6182655413808706e-01  1.4006141972859460e+00  1.3977551418985901e+00  1.4072549992522891e+00  7.4866746803528883e-01  7.5877251140231261e-01  7.7848834916448262e-01  7.7058155541273832e-01  7.9557598663324003e-01  2.1431551851145084e-01  1.8409006388697116e-01  2.2768517857834866e-01  3.0659368507030138e-01  4.5789971404144147e-01  4.5100247723495551e-01  4.8724856823686319e-01  7.1097365750414210e-01  6.9380848364027337e-01  7.2157743986173017e-01  1.9046953417119480e-01  2.2183636396806228e-01  1.9843060721171191e-01  1.6946036839731077e-01  1.2928252465666878e-01  1.4428533160652141e-01  9.4723048198766135e-01  9.8923149812450106e-01  1.0972257980580675e+00  1.0662604001938449e+00  1.0772500448378617e+00  1.8591175786569647e-01  2.1250556975257262e-01  1.3228363193315681e-01  1.6637099015479964e-01  1.5607071137811063e-01  4.4361306192871330e-01  4.7859103159729743e-01  4.8325678920593801e-01  4.8637770106966749e-01  4.5638456799378396e-01  6.5230337635460278e-01  6.1087964465073208e-01  6.3514977439517817e-01  7.2317518155812044e-01  7.6245983577577470e-01  7.3856616832448807e-01  3.9398732320173091e-01  3.6494148072146571e-01  3.8386987037308917e-01  6.2678331312201307e-01  6.0413471725154233e-01  6.3507650492938728e-01  8.2093158676874944e-01  8.3262686559870569e-01  8.0294978893167124e-01  9.3785532035149699e-01  2.2050705577810828e-01  1.9508467287450248e-01  2.2203319238535474e-01  4.9374534173456230e-01  4.7348893254855962e-01  4.9901329265580863e-01  5.7457137742898923e-01  5.8920476928198595e-01  6.1191419134800862e-01  4.4016856416352840e-01  4.8075600013083758e-01  1.1910809934523625e+00  1.1700129614130186e+00  1.1790568118803222e+00  1.3085200447449257e+00  9.2972775974812394e-01  9.6067458203710365e-01  9.4043715960483021e-01  7.7636023756419636e-01  7.4594051855876564e-01  7.3963938791079298e-01  1.0347154792740458e+00  9.9964739875006425e-01  1.0065333904151541e+00  9.9667379547488311e-01  9.7004687470428597e-01  9.6510050939140879e-01  7.3373302294873577e-01  7.0362219800617609e-01  7.2396320974087380e-01  6.5401211946831939e-01  6.3917705404519898e-01  6.8067308833120788e-01  5.7273997221641593e-01  5.4928845965178841e-01  5.3752164992825557e-01  5.8756868224052738e-01  6.0467589488016993e-01  6.2421066362506605e-01  1.5565449460698436e-01  1.9327448570075495e-01  1.6189885915661950e-01  0.0000000000000000e+00  2.9977648585122404e-02  2.2700349891854925e-02  0.0000000000000000e+00  0.0000000000000000e+00  3.3485879604422529e-02  3.8885358918113372e-02  4.7674657764843587e-02  5.9458974724835030e-02  1.1015305172334442e+00  1.1185075565852145e+00  1.0872684890918356e+00  8.9592405785552376e-01  9.2121729289088228e-01  9.0219945833352599e-01  6.7250448862595946e-01  6.3307550617399500e-01  6.5184787646929943e-01  7.8505396052210719e-01  7.9892696460038259e-01  8.2259917139582306e-01  6.7026771203107716e-01  6.6551084676819672e-01  1.4831044877788938e-01  1.8534992216784416e-01  1.5858816721153901e-01  1.4140964047072410e-01  3.8476477688027755e-01  3.6591624959485114e-01  3.5103953318461717e-01  5.9684016244133353e-01  5.9326836538578309e-01  6.2180212024709980e-01  6.8607385817131905e-01  6.4770411225644564e-01  1.4044620344328456e+00  1.4018673129249979e+00  1.4088277882142470e+00  1.4332099634186923e+00  1.4310291465234661e+00  4.7838842586562269e-01  4.3915816467312047e-01  4.6820405974700702e-01  5.5550864380138654e-01  5.1039679406114380e-01  3.1617914299910915e-01  3.4719604637936280e-01  3.2876595912298839e-01  3.6326160960890996e-01  3.3273560586992718e-01  3.3321522335755233e-01  8.1107617066248339e-01  7.7095835619646536e-01  7.9102369255215821e-01  8.6762713778976841e-01  8.5217143396810646e-01  8.8875529295474387e-01  1.0560983106855022e+00  1.0453644914326754e+00  1.0761011387861141e+00  1.1641235943533315e+00  1.1493365908383966e+00  1.1489243118315933e+00  1.3601306446953687e+00  1.3643496910098767e+00  1.3728489340397636e+00  1.3363451923620575e+00  1.3219558099985074e+00  1.3355235497852949e+00  1.4050333069644798e+00  1.4107402810821421e+00  1.4152460130164326e+00  7.1915366682239179e-01  6.8952465660570383e-01  6.8820430743367744e-01  4.2671943010720825e-01  3.8109936931641097e-01  4.0173422514889601e-01  2.0505781436001638e-01  2.3605742368863877e-01  2.3728194473004471e-01  3.1648248575535742e-01  2.9275903933201508e-01  3.3010382514119380e-01  1.1862929115102803e+00  1.1784200764427013e+00  1.1662680497478188e+00  2.0092996563398033e-01  2.2029437195285137e-01  1.2751019443799312e+00  1.2954911575925603e+00  1.2869879387503904e+00  1.3214824968453491e+00  1.3405606755057708e+00  1.3289350724659053e+00  1.2751918160293638e+00  1.2966634104329415e+00  1.2213578159973131e+00  1.2037921913651557e+00  1.2071988614974078e+00  8.0469184220041878e-01  8.2893877166261554e-01  8.1359740040196937e-01  1.0904471398363402e+00  1.0605068339937027e+00  1.0744896273557285e+00  5.6274176724854470e-02  3.6507532568336769e-02  6.2429970502419545e-02  5.8449051307372557e-01  5.6493069568451648e-01  5.5890404474363553e-01  6.2587810133294974e-01  6.1486920709462356e-01  6.5250884653383978e-01  2.0233615658922868e-01  2.1124558395412391e-01  1.8524308380029036e-01  2.8136137309419584e-01  2.7638340452085902e-01  2.5487902798376988e-01  4.1531649366643586e-01  4.2792896481647247e-01  3.9694217434730161e-01  9.9489101232048371e-01  9.8289051918226333e-01  1.0036522487906889e+00  1.3140736913059645e+00  1.3308070830040828e+00  1.3091947936423691e+00  1.3513882104057717e+00  1.3504165643460564e+00  1.3367387501034693e+00  8.7555634601675134e-02  5.3608826471765202e-02  6.2329027414662119e-02  1.3963914405530748e+00  1.4068901392160553e+00  1.3995215495819096e+00  1.3954311515765878e+00  1.4023189837638332e+00  3.9378490290410828e-01  3.6803295700630834e-01  3.9574516771390961e-01  3.6858679764908336e-01  9.1957291007538544e-01  9.4856289855463916e-01  9.3379632601782436e-01  9.6899073973833416e-01  9.9154562468989627e-01  1.3250031454306177e+00  1.3435323698640913e+00  1.3310871257042434e+00  1.3656972102604914e+00  1.3777648626717651e+00  1.3698373248282123e+00  1.3643880043647645e+00  1.3756796579304797e+00  1.3792311278261911e+00  1.2612851146485284e+00  1.2830179952569283e+00  1.2848215296116592e+00  1.3869340009329847e+00  1.3816959895421022e+00  1.3904916180352194e+00  9.3829779915465583e-01  9.6468861801372452e-01  9.2721244472526210e-01  1.0273722951621345e+00  1.0203357458503697e+00  1.0474119967929425e+00  7.8895871322289512e-01  7.4530686192613260e-01  7.7782661509037032e-01  8.6302881610375670e-01  8.5731794846949294e-01  8.4353664457457955e-01  5.8605604444845860e-01  5.4958267572358543e-01  5.7063151889358865e-01  7.3041100006412651e-01  6.9655374038739071e-01  7.2195359366761958e-01  7.3848133236625557e-01  7.5030663291997390e-01  7.4058735391747710e-01  7.6880348923178221e-01  7.5952024129271811e-01  3.4199837054848647e-01  3.0724353870052046e-01  3.4147238115720346e-01  2.7828673131278658e-01  3.0871041194549553e-01  2.6803286010250021e-01  1.1074396352172213e+00  1.1116639809992035e+00  1.0867162153373229e+00  9.9101569177046889e-01  1.1079664054891103e+00  2.6244094409488489e-01  2.3162483595345873e-01  2.7250873667123360e-01  3.4237861735511838e-01  3.0845490308707341e-01  3.4888456381099087e-01  3.2212127854868644e-01  3.4980197159899573e-01  3.5101995794653268e-01  2.7817913497585711e-01  2.4442044815437231e-01  7.5511407455082669e-02  4.4889492886167656e-02  8.0418099529311934e-02  8.0887400713276644e-02  9.1509752863781629e-02  1.0925901210935426e-01  2.5404553329235890e-01  2.5634535352947574e-01  2.7865583109575992e-01  3.0712555835517774e-01  3.0363546211247555e-01  2.8096258503502686e-01  2.6394250289619581e-01  2.3323868747510318e-01  2.2990769028890640e-01  4.9416316083205714e-01  5.0518826462007749e-01  5.3410762207454421e-01  7.9113485167405084e-01  7.5662763298447244e-01  7.9768102402267671e-01  7.8005066811256107e-01  7.0035227393181076e-01  6.8745337894949643e-01  7.3046578606007961e-01  1.3726671125218434e-01  1.2270948154302756e-01  2.7298313257636281e-01  2.9274459790431312e-01  2.9792384491680274e-01  1.9231859526938411e-01  1.7317706988429796e-01  1.2808288494641051e+00  1.1674540885976257e+00  1.1455778934859262e+00  1.1744436623679353e+00  7.8991170344515504e-01  7.7304271993404150e-01  8.1021530778961937e-01  7.3584542204167525e-01  7.4397711678959566e-01  1.9507448503543953e-01  2.3026589448043736e-01  2.1586179159976016e-01  2.4483309052957636e-01  1.0594159307783959e+00  1.0709802898130629e+00  1.0356676107207492e+00  1.0239990423927352e+00  9.1028721207336194e-01  9.2829592002302075e-01  8.5124868716627611e-01  8.4235972907058776e-01  8.2297419153517426e-01  5.9493857027306252e-01  6.0314220958738174e-01  5.7748166572122728e-01  5.2605582501604642e-01  5.6350714813644243e-01  5.4041685992994515e-01  7.3329739938910932e-01  7.1711942087174607e-01  6.9360142307505790e-01  6.7067183072456094e-01  7.0520641318137045e-01  1.2287164639283934e+00  1.2080504008950410e+00  1.2172804724085771e+00  1.1909084698773684e+00  1.1667315520008588e+00  1.1869337521619250e+00  1.2036076731234542e+00  1.2043271342017556e+00  1.2208570972424453e+00  5.4354442536089745e-02  7.6892076148867769e-02  9.2770796949667805e-02  2.0155753854569039e-01  2.1266888588618119e-01  1.8500138964659166e-01  1.4004017673717004e+00  1.0488303739673310e+00  1.0207077607738035e+00  1.0413656555670390e+00  1.0114362085440263e+00  1.0163051401279937e+00  1.0327621866624441e+00  1.0102203971109536e+00  1.0610021722999201e+00  1.0549267205090205e+00  1.034550490