<?xml version="1.0"?>
<VTKFile type="UnstructuredGrid"  version="0.1"  >
<UnstructuredGrid>
<Piece  NumberOfPoints="1130" NumberOfCells="2134">
<Points>
<DataArray  type="Float64"  NumberOfComponents="3"  format="ascii">0.2924965119749844 0.5806454640576162 0  0.2931357425666441 0.6158095738938106 0  0.2722845889387188 0.5986007514407707 0  0.06245154218797691 0.7943760977968389 0  0.05544056292684415 0.8360220202702611 0  0.02724914271240671 0.7995232918838924 0  0.1335850646589621 0.7291917770211511 0  0.09257890860895016 0.7227107754768907 0  0.1207009360036598 0.6914172198262521 0  -0.1127572484929876 0.6217075882064447 0  -0.09059232536756107 0.6461457043336694 0  -0.08244382822329682 0.6193610233350183 0  -0.1373197942797624 0.4432044140746515 0  -0.1708498639144158 0.4258289329533242 0  -0.1683718478273803 0.4550768101836 0  -0.2097608088645187 0.2706029166526365 0  -0.2553472029916841 0.2715809926304027 0  -0.2391685209522224 0.2307322500123088 0  -0.2612214313441482 0.4860827085271667 0  -0.2999268493360679 0.4942668376827834 0  -0.2761784895078877 0.5087930656610014 0  -0.6336799748740927 0.5412138273049375 0  -0.6367242063828276 0.4943077948128051 0  -0.6623691907668592 0.5109580860210953 0  -0.8189328877697528 0.4225545775266913 0  -0.7732510673161435 0.420047019447516 0  -0.7972043328982701 0.4010362957246634 0  0.09400378958013947 0.2055695036858353 0  0.1290725919584871 0.2207698374846717 0  0.1219808629418566 0.1890773044854493 0  -0.4309945018733153 0.5062643786080123 0  -0.4382089257601645 0.5497266439837095 0  -0.4119159386366162 0.5339223899750409 0  -0.6227781113910986 0.4494196041151011 0  -0.6567942943576646 0.4640171858672734 0  -0.6481157979026415 0.4373082602627743 0  -0.4712405913227501 0.1677045787871355 0  -0.5101607540755746 0.1422745461243285 0  -0.4855314936343032 0.1275817475248843 0  0.2162525383925422 0.08615652924307352 0  0.2246786184519418 0.05722134459703598 0  0.1858331413839794 0.06712133478128747 0  -0.395297655555004 0.5597085933417444 0  -0.393845571583094 0.5930343773993745 0  -0.3703409314215836 0.5744126151601694 0  -0.1732844607114084 0.7831016787925337 0  -0.2042612800303741 0.7831655859422791 0  -0.1887231468431922 0.8072354228488953 0  -0.2401164734357646 0.7642938074902216 0  -0.2007050285273371 0.7523935126534872 0  -0.2268594363809904 0.7369868775014541 0  -0.1696450233376555 0.7253721306646218 0  -0.2085138894959716 0.7108694539094691 0  -0.4304447217574816 0.7500053130336214 0  -0.4315890123179937 0.7095731294438389 0  -0.4566159372858562 0.7305137127660739 0  0.2068741599965308 0.6805917788483005 0  0.2050805379439151 0.7234446339117643 0  0.2218709634298657 0.7011057471390761 0  0.2162993597616463 -0.05864296304509958 0  0.1750354584180112 -0.06241539112817548 0  0.193720732252597 -0.0392358669981461 0  -0.0230893327402 0.1929077709269967 0  0.004761282153553419 0.1841053551365959 0  -0.0294157900699326 0.1671086648702482 0  0.1565461142119031 0.6738661189577495 0  0.1462519036200293 0.703786842447927 0  0.1808354785713632 0.6837740099682186 0  0.003584375230144248 0.8973914042388084 0  0.004168520773651397 0.9265977742636927 0  -0.02260959360525044 0.8990907582775318 0  -0.5553672154460828 0.1314190645461342 0  -0.5235028484586995 0.1112039343107129 0  0.1603091172319885 0.1987437044449037 0  0.1587220491624921 0.2266983155339805 0  0.1814480564065501 0.2139661830238536 0  -0.1528819986293607 0.1263255869844637 0  -0.1492482924853433 0.1580573615581254 0  -0.121785890413324 0.1264951045251249 0  0.06840700246376145 0.1813414697793323 0  0.05901930246285114 0.213188864059535 0  -0.1752833856350064 0.2330884014058902 0  -0.1463494540489943 0.2498979671367919 0  -0.1597540380916604 0.2128762917837419 0  -0.2666080625010207 0.8166860089768937 0  -0.2708315979539392 0.7816567174515252 0  -0.3125666401907646 0.8078345074970555 0  -0.404120413395211 0.790596968601049 0  -0.3736980272227576 0.8094398659945521 0  -0.3782485212331815 0.783550436492126 0  -0.6302032721917927 0.1842725605598824 0  -0.6662816078013655 0.1849757094845715 0  -0.6278359119408464 0.1559995968664962 0  0.04697055465782802 0.07164191122244783 0  0.03568486653295815 0.02782254432188264 0  0.07147362760462897 0.03813006809902156 0  0.07629170137027992 0.001199503106725944 0  -0.08254551195616064 0.2442760807068146 0  -0.1256264531238477 0.2318577153827438 0  -0.1100359059370774 0.2587079641700211 0  -0.2057340115688616 0.336734776516796 0  -0.1583351405483 0.3413766438249081 0  -0.1746963906066072 0.2991947239182672 0  0.2069802702871247 0.2191319025157533 0  0.2277242868701167 0.1958518940723663 0  0.2327020808785168 0.2211695803373901 0  0.08377029897187802 0.3968728637950909 0  0.09430952409275566 0.3649796683197574 0  0.1096177565212272 0.4086602604886229 0  0.1993614565197579 0.6303751881642145 0  0.2183947193733605 0.602039791860232 0  0.2244999519515443 0.6267009039980487 0  0.2603645391142563 0.6285756014906578 0  0.09969329332901172 0.7636117992424346 0  0.1302396754667923 0.7597935550942527 0  0.3054091438189218 0.7866902927858057 0  0.3357122182608844 0.7742694490625159 0  0.3340932520791566 0.8018765332110196 0  -0.3419627731396465 0.7347283846920364 0  -0.3520950571293062 0.7809111428238701 0  -0.3692699615099612 0.7343393389683085 0  -0.5840098151137766 0.2990048577514015 0  -0.6080756186142645 0.3165493008588801 0  -0.5823578507234605 0.3265486810853542 0  -0.7051763504253612 0.250234969313039 0  -0.7068111699962591 0.2244295694172429 0  -0.7307168990284388 0.2554584211146595 0  -0.4836131513794496 0.6232288808042636 0  -0.4928484342320275 0.5960519446409566 0  -0.5117044153203884 0.6291244044274967 0  -0.4409287066533773 0.6702178123895151 0  -0.4738508613963038 0.6572424830600011 0  -0.4501566366006438 0.6453775654719015 0  -0.3429952027518596 0.5223588630033167 0  -0.3206329923626178 0.5503883121993246 0  -0.3685624877363587 0.5418514467512064 0  -0.3893699539648601 0.6237039937970631 0  -0.3422033714709892 0.6265868844716567 0  -0.3644188643635339 0.6027670761648919 0  -0.6575050454237221 0.2288298014079799 0  -0.6447641122924658 0.2516770218638512 0  -0.6798884378325298 0.2427667040117376 0  0.2579067442312717 0.4688983724209494 0  0.2888513267043814 0.4378317642069166 0  0.2515399520834085 0.4316117661101545 0  0.2722069355506832 0.8284688529037881 0  0.2642325312678823 0.8678131532115284 0  0.2341417510346148 0.8335977078735048 0  -0.609195381974423 0.1346104521165029 0  -0.581512774190834 0.1459772283855625 0  -0.606311706240823 0.1720374621998764 0  -0.1137242964947925 0.7342494510189826 0  -0.1085533329295061 0.7711569775053645 0  -0.08842803878944591 0.7495212997310273 0  -0.09035277733789798 0.4919220888235711 0  -0.1387502465387686 0.4915819350525998 0  -0.1147755671194965 0.5236308404416747 0  -0.08799438577573623 0.3012994251470535 0  -0.08054411621706016 0.273239330540436 0  -0.06068658392917529 0.3120024979569823 0  -2.220446049250313e-16 0 0  0.03833101908736652 -0.01236714587332863 0  0.03332211297248573 0.1779883120077971 0  0.0553878700818049 0.1568128372514456 0  0.03879512812050209 0.1013532927181565 0  0.01956592186948998 0.06947958240077355 0  -0.3110288607107251 0.08135098352660518 0  -0.344921080983376 0.08229130413897219 0  -0.328161300472874 0.05287969798319995 0  -0.08860505921103043 0.5920506521433744 0  -0.1159536089414161 0.590966322597226 0  -0.1021964897951705 0.6788144063269812 0  -0.136261090104428 0.700646753224388 0  -0.1228430025016362 0.6531026549154566 0  0.1415956346790651 0.6023153900601184 0  0.1455023681906896 0.561880690090387 0  0.173814985803951 0.5850222891851874 0  -0.7039359164953137 0.1054244296900993 0  -0.7241549932545398 0.08547378493790607 0  -0.7240317325936491 0.1290401816176439 0  -0.7146836516968359 0.3927695373773623 0  -0.7171931948150422 0.4336007787289713 0  -0.7460250674529035 0.4301448157942048 0  -0.8336681057691238 0.345316635927459 0  -0.8219806880639507 0.3831114868492926 0  -0.8020922577552831 0.3633132148152522 0  -0.5618738577248394 0.6403651441164777 0  -0.5473882199946626 0.6849348980099506 0  -0.538289355892541 0.6573388026093229 0  -0.4824797505496254 0.3838810792864338 0  -0.5230731684421793 0.3642691414098798 0  -0.5137211790366101 0.3967288418064787 0  -0.09386743165719327 0.8868230745198202 0  -0.1334231263863611 0.8942731301668522 0  -0.1092845443900445 0.9137012029455377 0  -0.04523581318749946 0.8244439404340452 0  -0.0769396102945519 0.7908921470434424 0  -0.09343945562699482 0.8132315912754917 0  0.0455101775939576 -0.1178143478783519 0  0.07525030372245567 -0.08800061275601394 0  0.04261815316074052 -0.08518924674757319 0  0.1424349288786705 -0.03683910833544325 0  0.1406428911848698 -0.004598908502305238 0  0.1639118323293636 -0.01947543299796284 0  0.1859045193885197 -0.1024004418516471 0  0.19058579448583 -0.1427680390589207 0  0.216883382856332 -0.1337619999027692 0  -0.2373028979847076 0.5473261424768866 0  -0.1932653732436898 0.5665479687088435 0  -0.2062682446319116 0.5362814988625322 0  -0.2126522817199431 0.3845511360064228 0  -0.1866730065200072 0.3639012639806355 0  -0.4174180203574351 0.2086894809925613 0  -0.4048848604657676 0.1820574049833631 0  -0.4464806129667586 0.1834083348043779 0  -0.4568841982408385 0.1262359142486632 0  -0.4313452580001016 0.1582968730533858 0  0.07231769945658416 0.5196157514494713 0  0.03312463406788048 0.5008840041940618 0  0.06513249352082014 0.4842812410161731 0  -0.0004027730160685861 0.7771386075583826 0  -0.03905074592193825 0.7819032022368267 0  -0.02332525375120641 0.8059095547793576 0  -0.2649860329145938 0.1824261056420857 0  -0.3041191825682435 0.1773695031720618 0  -0.2803378790137869 0.1428742985583878 0  -0.2687508696165652 0.1158982906339185 0  -0.2514827659916298 0.1482915158136655 0  -0.322899042696953 0.1999682459755028 0  -0.3484887776281561 0.1655499381999704 0  -0.3515501295523116 0.2070651371825604 0  -0.3903979979922381 0.1564355708354559 0  -0.9163492829346521 0.2448659195690242 0  -0.9192152205576599 0.2847796305242293 0  
[...]
<PointData  Scalars="f_2282-2"> 
<DataArray  type="Float64"  Name="f_2282-2"  format="ascii">2.8664331353621941e-01  2.5946377261387615e-01  2.8017123680127537e-01  1.6115446103711650e-01  1.2647914968050658e-01  1.5814008112185921e-01  2.0832774722000855e-01  2.1941331045737120e-01  2.4240692676506936e-01  3.0232479268387741e-01  2.8461970017149035e-01  3.0817296670435851e-01  4.3825339031165556e-01  4.4214912864648898e-01  4.2184356416818308e-01  5.2165499317370734e-01  5.0252738533889696e-01  5.2759183240570107e-01  3.6903078611428086e-01  3.4756369706268447e-01  3.4684828730075834e-01  1.3026192297204076e-01  1.5338376167573131e-01  1.2757472228973449e-01  5.8610400324146633e-02  9.1639878304177982e-02  8.2021253719225418e-02  5.8236697764215817e-01  5.6890487728863881e-01  5.8279075529360680e-01  2.7409462969852538e-01  2.4133330142633788e-01  2.6591441844636743e-01  1.8532812374444740e-01  1.5477740739005871e-01  1.7392741977522558e-01  4.1040740603775666e-01  3.8732480241627898e-01  4.0887760118001915e-01  5.7949113463987656e-01  5.8005571485415930e-01  5.9364008913922850e-01  2.5667540682150375e-01  2.3359826450504875e-01  2.5796769423373922e-01  1.5643832896317858e-01  1.5050572294069040e-01  1.3390265209192129e-01  1.5754736694144006e-01  1.7617818080733333e-01  1.8301611630197281e-01  2.0537890958889160e-01  2.0887051241940166e-01  1.0429956032346811e-01  1.3259456475595163e-01  1.0691269668239645e-01  2.3410739352987359e-01  1.9910495704746545e-01  2.1365699470008465e-01  5.8318189546161270e-01  5.9867233365743033e-01  5.9366752162010250e-01  5.9513590744637135e-01  5.9918054111841679e-01  6.0359760847022126e-01  2.5091555093362250e-01  2.2764445279286097e-01  2.3762331022573446e-01  7.7794404155607205e-02  5.4681657477126958e-02  7.5824619131149365e-02  3.5356036221653037e-01  3.8258638173911164e-01  5.6926803401867898e-01  5.5813037216184558e-01  5.5619211167274651e-01  5.9377447560928931e-01  5.8611497727795003e-01  6.0173600330947685e-01  5.9563341866835373e-01  5.8444807855815339e-01  5.5072414887537802e-01  5.5148493046537472e-01  5.6374920984289612e-01  1.0900464159931925e-01  1.3538127423418697e-01  1.0311813149662027e-01  8.5505783075327024e-02  8.2613750967517594e-02  9.9749372565007960e-02  2.8142174575988088e-01  2.5100665167504410e-01  2.8948650757730343e-01  6.2513858145089085e-01  6.3057197902711681e-01  6.2568130244702547e-01  6.2684167339867114e-01  5.6773412785712207e-01  5.6533428322324242e-01  5.5595016992177704e-01  4.8788121570258108e-01  5.0017471523990686e-01  5.1916514258590185e-01  5.4525171260487004e-01  5.4571561449031536e-01  5.3405250756044920e-01  4.8008587546771442e-01  4.9975343306783981e-01  4.6783513211823669e-01  2.7720575584183288e-01  2.9497849402727061e-01  2.7332252472370205e-01  2.6075161829377819e-01  1.8374662308929768e-01  1.8323557325366804e-01  1.2139842957008436e-01  1.2160833734430816e-01  1.0116298287311808e-01  1.4967042607071335e-01  1.1097141451981439e-01  1.3975367258754454e-01  2.8160842765791622e-01  2.5631864208784833e-01  2.7159011861395144e-01  2.0257363104707699e-01  2.0821308618428319e-01  1.8020357357282540e-01  1.6778935238813120e-01  1.8074368201632787e-01  1.4895409013822203e-01  1.5648489139497496e-01  1.4963241400945718e-01  1.6949675944002607e-01  3.0807773781651371e-01  2.9807898275530975e-01  2.8232764387569687e-01  2.1368801776856064e-01  2.3190667302166015e-01  2.4018575114929683e-01  2.4745236885149829e-01  2.5052339655013606e-01  2.2465263324483750e-01  3.8268505742928488e-01  3.9129515355080574e-01  4.1098005715096320e-01  9.8273522477943909e-02  6.9960845301491825e-02  1.0333953295101066e-01  3.0927575417305780e-01  3.2969743352092418e-01  3.0320979525254743e-01  2.0706372213122140e-01  1.7640061565410747e-01  1.9668724603295690e-01  4.1045600507009899e-01  4.0226151371766250e-01  3.8195338332369472e-01  5.3827868806989310e-01  5.5432987637211595e-01  5.3583965647694176e-01  6.3245373312030739e-01  6.3074851492344941e-01  5.9994444494675403e-01  6.0476910643863180e-01  6.2046111017181071e-01  6.2715572602025160e-01  5.3404657918486353e-01  5.1384658846835329e-01  5.2736971568819724e-01  3.3034550805601176e-01  3.2713359034501560e-01  2.5559560728867647e-01  2.3204108153966402e-01  2.7432082075841374e-01  3.1337460991815119e-01  3.4559112789129154e-01  3.2046815520170691e-01  2.3399155339574670e-01  2.1854817132750734e-01  2.1354000564809011e-01  1.4505838460509629e-01  1.2627124844638810e-01  1.0726109260906655e-01  7.3919182130580546e-02  6.9823545685647498e-02  9.1525658076949512e-02  1.1489840746772524e-01  9.4520039909381570e-02  1.1676736156914659e-01  3.1526188189895271e-01  2.9770256538669537e-01  2.8752053580832077e-01  8.2544951685983095e-02  7.2274077227255484e-02  5.9400440863764489e-02  1.3698856029105078e-01  1.6287015936940277e-01  1.4266264809005214e-01  6.1666611844549768e-01  6.1898723476781292e-01  6.2333019905054965e-01  6.1094204103732186e-01  6.1251390326536093e-01  6.0529797134802032e-01  5.8819877474676929e-01  5.7743497580066372e-01  5.6925569302642953e-01  3.3194599368209970e-01  3.3051599851959512e-01  3.5042666076691814e-01  4.5629608637673114e-01  4.7781773852245224e-01  4.3618574448937730e-01  4.5294480302098850e-01  4.2387861400319249e-01  4.3076240374924624e-01  4.4162700169651076e-01  3.9116384461675990e-01  4.0906615112273353e-01  4.1938169221298544e-01  1.7798844165816280e-01  1.7267752809289186e-01  1.5284427872438736e-01  5.3390501329154672e-01  5.1564432401540594e-01  5.3770791836272613e-01  5.5018374744843379e-01  5.5051090219765186e-01  4.9766554800829643e-01  4.9366037535024121e-01  4.7875117853098553e-01  4.6976646978725295e-01  3.7460238314714650e-02  2.6834061314482519e-02  4.6676753087326578e-02  3.5638120870784218e-01  3.4090597080385776e-01  3.2202835446509664e-01  2.7492710452171126e-01  2.4994104002064946e-01  4.1043738225605406e-02  4.8276848870155299e-02  6.5609708743888204e-02  2.3418589598973211e-01  2.6656982246625438e-01  2.4905946348314081e-01  1.7360037587359442e-01  2.0012803791331218e-01  1.6753387773072248e-01  7.9925815768151595e-02  5.1773724805030716e-02  5.6452400741515779e-02  5.8333906164952799e-02  8.1757043208976782e-02  5.8500308005731951e-02  3.8614098802370594e-01  3.8215428776761612e-01  4.0925462984359062e-01  5.1012989825713828e-01  3.3807945884336521e-01  3.3142215755379972e-01  3.1353742819262181e-01  3.9392485575454939e-01  4.2999325737479793e-01  3.9288341088388212e-01  1.2032498743867687e-01  1.0937179623184656e-01  1.8393533189202557e-01  2.0786512703937821e-01  1.0059460653709711e-01  8.2918576167776162e-02  1.0460267245661128e-01  4.2294400794390696e-01  4.3639607476029785e-01  4.4489055684476458e-01  2.5541828716575826e-01  2.6330887154093552e-01  2.4032239100889444e-01  6.0913790783752386e-01  6.2164076151100267e-01  6.1605672245875720e-01  1.1793772154886807e-01  1.3202640666651239e-01  1.3916782725075122e-01  0.0000000000000000e+00  0.0000000000000000e+00  5.2238792479367779e-01  5.3896174293244636e-01  5.3376594825888790e-01  6.0961452238577263e-01  5.4829609631719833e-01  5.3424518464599235e-01  5.5689498431836681e-01  4.6876025401982857e-01  4.6815996337850779e-01  4.8656694359132741e-01  2.8098483001895391e-01  3.0055513191940603e-01  2.6476859916684237e-01  3.0543917668884235e-01  2.2292709083746212e-01  1.9688356638007745e-01  2.1189705658109950e-01  2.7372727892416304e-01  2.3801942843230772e-01  2.6034241692870996e-01  3.5564549076884899e-01  3.3486694303323700e-01  3.5768305425482960e-01  0.0000000000000000e+00  1.6578348170507847e-02  1.8325866817871107e-02  3.9714734016715957e-02  2.5422722693156985e-02  4.8899691577260512e-02  2.6926931149063210e-01  2.4570519611875988e-01  2.2828438079910826e-01  1.3479235740712492e-01  1.1608279749113373e-01  1.6563561011968586e-01  1.5961307315473325e-01  5.5233633430945484e-01  5.4124770165888414e-01  5.0559549297568640e-01  4.8730053154004849e-01  4.9525446669595063e-01  5.0346182054578570e-01  3.2393053892399271e-01  2.9857502970521199e-01  3.1146495928127016e-01  7.6378912911944472e-02  7.6976025559067185e-02  5.1834643861919265e-02  7.9965718744502742e-02  6.2687978217810558e-01  6.2791108185491173e-01  6.3094112064572094e-01  6.3096453191733803e-01  2.3894630475515091e-01  2.5967489110709435e-01  2.5058998142289451e-01  4.4117817421803429e-01  4.2167972222564848e-01  4.5437799753531116e-01  5.3235924884288377e-01  5.5208627216108630e-01  4.7522176907777353e-01  4.7449023994758260e-01  4.9815070103643661e-01  1.9196094190555635e-01  1.1722114225261575e-01  1.4480763003673855e-01  1.6526061793985172e-01  1.6536609681637818e-01  1.0663310488081434e-01  3.2589895345848974e-01  3.3146300177772375e-01  3.0448323503175095e-01  1.9883600331968809e-01  2.2382237102498848e-01  2.0582456312472908e-01  1.9337328209822299e-01  1.9570246263839794e-01  5.4457589503619142e-01  6.0539820850228510e-01  6.0700550014194865e-01  6.1233398178687659e-01  2.0873169700138949e-01  2.3356649671712132e-01  2.4453537831263078e-01  1.5552294763177529e-01  1.9183656546853889e-01  1.7324732729162581e-01  3.1693903463781474e-02  1.7183749177450414e-02  6.0958492177949986e-01  6.2015479135918339e-01  6.2110925920815319e-01  5.7592801802991400e-01  5.9463273615238610e-01  5.2179748850593655e-01  5.0842316485271466e-01  5.5211652610952044e-01  5.7044339980203562e-01  5.5803345709036689e-01  5.6281960235428186e-01  5.7077915577029115e-01  5.8328174860897652e-01  2.5521433616578432e-01  2.5538473902316916e-01  2.2667062193380841e-01  6.1636574424746959e-01  6.1333516487793038e-01  6.2114825158020526e-01  2.7992853517410754e-01  2.8180125306686327e-01  2.5615750555854627e-01  5.3667642016101258e-01  5.2860346446581974e-01  3.2917640744579540e-01  3.0211621172314013e-01  3.2500980756383557e-01  3.5139857593509405e-01  4.0654702694927491e-01  4.1689341074068204e-01  4.0116695999324758e-01  4.2341325603580715e-01  4.1529066215108185e-01  3.9939410743176451e-01  3.8367576451793184e-01  4.0615793768110398e-01  4.3449977895939212e-01  4.0632270853824465e-01  3.6027881005865536e-01  3.5905050100817482e-01  4.2879757290347603e-01  4.6050324360458972e-01  3.2388172535430454e-01  3.1983094440981991e-01  3.6591633849733635e-01  3.8693994377474789e-01  1.3976608675075147e-01  1.7007035081534927e-01  1.6012313060220792e-01  2.5235868336153472e-01  7.0951716016768876e-02  7.5958929710316855e-02  5.5026046085955342e-02  6.3055997709071970e-02  9.1504973438229498e-02  7.0751087910165961e-02  5.2420999471129470e-01  1.4517766967462037e-01  2.7755319385644683e-01  6.1352901539139504e-01  6.0382175341445543e-01  6.2306333922460122e-01  3.2449556780146843e-01  3.0045994897138562e-01  3.2887461941838897e-01  3.5354416504493480e-01  5.1338577485497139e-02  6.3528848513577610e-02  8.0130306508268537e-02  5.2445453204181136e-01  5.1461430317531176e-01  4.5318735451777281e-01  4.5940268026632386e-01  3.7002857120567201e-01  2.1836945114546896e-01  2.0481600225072788e-01  2.4101380586090421e-01  3.0068334253258510e-02  1.4653891424708168e-02  4.4411976079839370e-02  1.3244218243185463e-01  0.0000000000000000e+00  2.0314085233478239e-02  0.0000000000000000e+00  1.0991764361574313e-01  9.0694233367763180e-02  8.8047053867043756e-02  4.7077013326960043e-01  4.5687155854940215e-01  4.9264503169462354e-01  4.6918880582764361e-01  4.9627807114512401e-01  3.3441013104243811e-01  3.6452397874762704e-01  3.5228492931507216e-01  3.8095545188728308e-01  4.7435623263932930e-01  4.9626794878710673e-01  4.7754691196586496e-01  4.6114187772382303e-01  4.4468333483184136e-01  4.6424096237425755e-01  1.6003287397584123e-01  1.8154483490167750e-01  1.5975347960248654e-01  5.6758829757279139e-02  4.8016422848287943e-02  3.4504378487976238e-02  0.0000000000000000e+00  0.0000000000000000e+00  3.9057143152284264e-02  2.1922861110238889e-02  9.6805455530948034e-02  9.9119304896518143e-02  5.5592060732054395e-02  5.1930599711597109e-02  2.5484064564707854e-02  0.0000000000000000e+00  0.0000000000000000e+00  2.5927720013518918e-01  2.6049346566337644e-01  2.3757744877127818e-01  6.0895145669237061e-01  6.1671267590856094e-01  5.9528423625242533e-01  6.0386237921432351e-01  5.9461467186577255e-01  3.7655837545768134e-01  3.9579881578938447e-01  4.0044121894271723e-01  4.5426781587564924e-01  4.6898804060097127e-01  2.2010112863930772e-01  2.4119457177896944e-01  1.5733707446825174e-01  1.5342758188769631e-01  1.2935120363245090e-01  3.1749717387519666e-01  2.9678042877162242e-01  3.5000714192958582e-01  4.7782273532707625e-01  4.9298335204308336e-01  4.6407548045688868e-01  2.7770801747182233e-01  2.3657304288550621e-01  2.0045247965264260e-01  2.3029298892915481e-01  2.6017571735741146e-01  2.8317517826910910e-01  2.6182730276163135e-01  1.3931432849604314e-01  1.1492696445461879e-01  1.0019051692143961e-01  6.2959771564330025e-01  6.3100140032607943e-01  6.2758125377038709e-01  6.2681641157685863e-01  6.2905047522283031e-01  1.0335804432189982e-01  7.8560329305149293e-02  6.2806750255979904e-01  6.2494497996941489e-01  6.0752971662915844e-01  6.0043018439197149e-01  5.9851214810880549e-01  1.0922053920900343e-01  1.3926374422676879e-01  1.8272184044545972e-01  1.5634788350761900e-01  1.8404030301312485e-01  3.2015117448624696e-02  2.9663187674567614e-02  1.4505976200531632e-02  4.4646193930826411e-01  4.1910808182478060e-01  4.0249713840560297e-01  3.9722513661818887e-01  1.0018456405168957e-01  8.3524691141512813e-02  2.7116541411992739e-02  5.6661905028487385e-02  3.3772056089950464e-01  3.0156521180910661e-01  2.7338756869919661e-01  6.8137110613949808e-02  9.4949234873668881e-02  9.3083945764701068e-02  7.5033222290804613e-02  6.3430859762182878e-02  1.1217594003196593e-01  1.3562905459589658e-01  1.5041935848322863e-01  4.1058275935366234e-02  2.5088074951279318e-02  2.1434989700817853e-02  5.4318327727618458e-02  6.2068366274931019e-01  7.5600399160100959e-02  5.5219453957659620e-02  5.3555908049471537e-02  1.0152632048991735e-01  9.3273649694953137e-02  5.3639393223945053e-01  4.0618021102592233e-01  3.8376732037311179e-01  3.8531330943483499e-01  3.5413521851269425e-01  3.9498613532685600e-01  4.2703147578944850e-01  4.5152977352970503e-01  3.5760349633406657e-02  3.2338580087846978e-02  5.4263298547318928e-01  5.6025406989766058e-01  5.4532267135565526e-01  3.5263267177623042e-01  4.1084828317480598e-01  3.8738765937876918e-01  1.8403213730724105e-01  6.0232558009820292e-01  4.8621496249629637e-01  5.1379450504091395e-01  5.6920664076334826e-01  5.8946690978698035e-01  5.7993108763923762e-01  5.7075396041263138e-01  2.3124005141565326e-01  1.9561473200562440e-01  2.1183763766060928e-01  2.2777779911517193e-01  3.2961496638889970e-01  3.0555123618591296e-01  3.6913566770112777e-01  3.8502629837834290e-01  2.3072273618737668e-01  3.0856815763716700e-01  3.9336173716933731e-01  4.1434819105326015e-01  3.6529253523477345e-01  3.5737779195656139e-01  5.8457700459348494e-01  5.9412190164292311e-01  5.9093167708942274e-01  5.9330882569727239e-01  1.3657695376957779e-01  1.8641417438868654e-01  1.9324080876701344e-01  1.6166181511324226e-01  2.1797919498625449e-02  1.5398344164842021e-01  1.2630550578176558e-01  1.0665074308704017e-01  1.1911445729708939e-01  6.0461931023117965e-01  3.8575243351134256e-02  5.1255506193700888e-02  1.8434310153015724e-02  4.1361607662409067e-01  3.8610908318179998e-01  4.1279351907524314e-01  4.2670466020549158e-01  4.3456208805598889e-01  6.3045072271579883e-01  6.2434063526800831e-01  5.8088840919375240e-01  5.7309052786516801e-01  5.8531111609093134e-01  5.9519240391628303e-01  5.7971194300268669e-01  5.8271138780739773e-01  3.7094515547824775e-01  3.7350573717424818e-01  3.2658146639276592e-01  2.1373969498981346e-01  2.0327051313464992e-01  2.2220475812257698e-01  3.4923007017705071e-01  3.4069499258895714e-01  3.6473594466930831e-01  3.6129563665119113e-01  3.3768830924604698e-01  5.9317724232683611e-01  5.4202009615237501e-01  5.6246596024840534e-01  5.4937410981640589e-01  5.4132762353962460e-01  9.9124116602552673e-02  7.6692652301524458e-02  1.0318277333028004e-01  4.5117426494519530e-01  4.3194989246442156e-01  4.3126850323220051e-01  5.2574311482089264e-01  4.7747215667254378e-01  6.2457813044391330e-01  5.9316583423691127e-01  5.9593145014898574e-01  4.5489203853190935e-01  4.3392395663558880e-01  4.1069438169762179e-01  2.0171910956070704e-01  1.5637276750045145e-01  1.0688107778772765e-01  1.3069590889827976e-01  1.2379847611311445e-01  1.1030669294098788e-01  0.0000000000000000e+00  1.7383904161790378e-02  3.9508082897770774e-02  4.3333733932302981e-01  4.0997245353473999e-01  4.2183154581146720e-01  1.2304357224684478e-01  1.7858545050539254e-01  2.1493594627233448e-01  4.9468233630261615e-01  4.6826148239995935e-01  4.8278684138111161e-01  4.7109863425512516e-01  4.4933536378413780e-01  4.5169595852407740e-01  4.2656552359833039e-01  3.5692714642928378e-02  4.9262328449599650e-02  9.5768470583488696e-02  1.7478847819748744e-01  1.8510509512937831e-01  2.0477163266731788e-01  2.0381660452318079e-01  5.7912231943119863e-01  5.8647120061215785e-01  5.7412914697669659e-01  5.1590035354288999e-01  5.5955758885919062e-02  6.1253238333751750e-02  6.2480894350516368e-02  8.4885764582282308e-02  3.3487024539006083e-01  8.0033330789678683e-02  6.2970542570488799e-02  5.7596058369157314e-02  7.9918742360042622e-02  0.0000000000000000e+00  1.5783793351543438e-02  1.9272129218218775e-02  3.7510701787615425e-01  4.2872712334407154e-01  4.5119757939887517e-01  2.0593138079515882e-01  2.4945818314581797e-01  2.1655815912499635e-01  2.8011135448116725e-01  2.5604334065571943e-01  5.0156482560673510e-01  5.1470315874480121e-01  1.9517347292375734e-01  2.5558681334844452e-01  1.5552454373001354e-01  1.8028940434381718e-01  2.5180627963068164e-01  2.5874502284348044e-01  1.2880656010928684e-01  3.5197991706752682e-02  3.0496370956914532e-02  6.0959091594548409e-01  6.2446238006133870e-01  2.9228292384071680e-01  3.1439887300710523e-01  2.9280089948198862e-01  2.6827811780710381e-01  2.5114048840314829e-01  3.0216588200854298e-02  3.3918722159388272e-02  2.4686562110147720e-02  6.6110559957396564e-02  6.1345657152091962e-02  1.2726866085216618e-01  1.4975973937128267e-01  6.0342449237282703e-01  6.1546501888734295e-01  5.9949187563392237e-01  6.1742969107692613e-01  6.0796261013869624e-01  6.1626892992059890e-01  6.1319039351026261e-01  2.6752480512434690e-01  2.9661739953812094e-01  1.2396515588190231e-01  1.0388633581887988e-01  1.1698956288265536e-01  3.8145003131868839e-02  1.7175122825126607e-02  2.0754587318991727e-02  3.6472191497109907e-01  3.8511772526069671e-01  4.3267797915404699e-01  5.1280109849958222e-01  5.1347498194477026e-01  4.9429159631128666e-01  1.9335216211559242e-01  2.0275930096438843e-01  2.1614979498905790e-01  6.5833134248059741e-02  0.0000000000000000e+00  0.0000000000000000e+00  2.7104201224226597e-02  2.1640339895057162e-02  4.4763988305516239e-01  6.0997213851563292e-01  1.4697059532969048e-01  1.7416491247399676e-01  1.4511532928348156e-01  5.6552905209896376e-01  1.3162858733962449e-01  6.3065503768860318e-02  5.0535348620830756e-01  5.2436795457780982e-01  5.2029331078691743e-01  5.4223476812728144e-01  5.4208982300304864e-01  5.2636027279065956e-01  4.6083787749108163e-01  3.6459684618330818e-01  5.7064560827213666e-02  8.6925049716037664e-02  1.7535894931481646e-01  3.2379592881387254e-01  3.2798636426657768e-01  3.9790124584041886e-01  5.8217636644724469e-01  5.7169230025697759e-01  4.7243824917147542e-01  5.0369417581532649e-01  3.0490108298395596e-01  2.7866765783545128e-01  2.9660488905677257e-01  1.4513850553257868e-01  9.8709532538967110e-02  3.6434380514017338e-02  3.6374078915306099e-02  1.5430435238114023e-02  4.0005250464773552e-02  1.8209097854114425e-02  5.5839173961208599e-01  5.4936673743833997e-01  6.1616678111299583e-01  6.1520652670438358e-01  6.0285017172004507e-01  0.0000000000000000e+00  0.0000000000000000e+00  5.3497317446290250e-02  2.9796458023944389e-02  2.7050549970371190e-01  2.232641912