<?xml version="1.0"?>
<VTKFile type="UnstructuredGrid"  version="0.1"  >
<UnstructuredGrid>
<Piece  NumberOfPoints="1084" NumberOfCells="2042">
<Points>
<DataArray  type="Float64"  NumberOfComponents="3"  format="ascii">0.855514644808588 0.1284292535948348 0  0.8401757085691636 0.1679271747730996 0  0.8685129340651084 0.1562044951412642 0  0.2953999206664901 0.04026370973839133 0  0.2727107741580766 0.01031336678820788 0  0.3004070358461022 0.01290117244408536 0  0.4617886276769411 0.3353957442895661 0  0.4912817337304227 0.3727061397179142 0  0.4539709876153052 0.371887476088316 0  0.6201251410376256 0.09688459113817011 0  0.6434001565788463 0.05268175586883797 0  0.6090301150055984 0.05952666244658643 0  0.7522939267922419 -0.4004965413794968 0  0.7410711755224456 -0.3707162955646782 0  0.7692118971124989 -0.3688759676569528 0  0.4837222547114566 -0.1926490854371977 0  0.4404107886116583 -0.1817985809085617 0  0.4521001971762039 -0.2135861488778773 0  0.2318050003585312 -0.213983931316002 0  0.279870004255202 -0.2093774048708557 0  0.2531130340729764 -0.1832532667015915 0  0.6577307878643813 0.01859320948141046 0  0.6731683632256446 0.06173300968351035 0  0.4570919891687704 -0.7530397486460687 0  0.4834647135726919 -0.7163555249546549 0  0.4939499054031887 -0.751715398330822 0  0.5059612714748689 0.08938903128408915 0  0.4745336821831974 0.1055944983868761 0  0.4818436008576278 0.08119395861908205 0  0.8019718439111608 0.1285398753848373 0  0.828768626354068 0.1407698751999194 0  0.8067220340387148 0.1536036869636551 0  0.4816529363189698 -0.5359538809713272 0  0.4523462244666195 -0.5572691952876961 0  0.4775209246136201 -0.5610774755678507 0  0.663894096090064 0.2381656457450875 0  0.6583074584565023 0.2679951024258648 0  0.6898314402074481 0.2375971204039016 0  0.5840968071904051 0.6781291660011531 0  0.6081536160770576 0.6509575991874648 0  0.5645001116370951 0.6602149860435697 0  0.6302163977109844 -0.1384037938153676 0  0.6264742913672765 -0.1653262152652349 0  0.6571836951961331 -0.1409653464511229 0  0.6526673797513434 -0.1725886017542859 0  0.3207452767915521 -0.7743475972972779 0  0.3051159099885882 -0.74565385731203 0  0.281642659294784 -0.7869587443019139 0  0.4276326631853311 0.6998590113916514 0  0.4191852691759226 0.7336049125921794 0  0.4449124569695793 0.7221147922856616 0  0.6301972231455205 0.02624839768945893 0  0.5941437518154578 -0.7280398936550003 0  0.5583487284632143 -0.7159771428697908 0  0.6016735120122167 -0.6911967819646654 0  0.6928094442470396 0.1904974778732374 0  0.717589563559959 0.2070725087516031 0  0.6783517701685519 0.2143315618091625 0  0.2441736859806193 -0.013238280349902 0  0.2461856651365579 0.03610995718233868 0  0.4146008664590951 -0.4415804827735934 0  0.4058550639008564 -0.4770503152532232 0  0.4285933982095163 -0.4638437669233825 0  0.4877130603296085 -0.4830992039877709 0  0.5173710650302155 -0.4703644675802144 0  0.4832226915370715 -0.4541010388389044 0  0.753529457929813 0.2721455277143517 0  0.7346302836380226 0.3096966442310014 0  0.7632719411464213 0.3088750052106449 0  0.4826801558829261 0.5278655850029362 0  0.5163801363355287 0.5514905609086045 0  0.4896711031694089 0.5537415604987794 0  0.5333164770431995 -0.3553698665924153 0  0.5566194127645377 -0.3972810158513128 0  0.5074218841298895 -0.390129421105847 0  0.7633927378420774 -0.1714187069867768 0  0.775818430854639 -0.2079874905708813 0  0.7485205588418528 -0.1968675715456987 0  0.6567436512179938 -0.01837193016516887 0  0.6703694082604046 -0.05423337209811997 0  0.6823086839339092 -0.02917766442428712 0  0.7866092159292974 -0.08959516526956038 0  0.8267411211129154 -0.1073468612290715 0  0.7905527424518393 -0.1349195686897359 0  0.7018052076891695 -0.2646560196462904 0  0.6897452306892373 -0.2916040180581805 0  0.7201306804142041 -0.2877400974731488 0  0.8692218613448256 -0.2238553918305647 0  0.8322842055378167 -0.2359165218493522 0  0.8716333364862425 -0.2601179532538458 0  0.3770975254229973 0.2052786382865996 0  0.3462470755101406 0.1818445585451582 0  0.3883445771415037 0.1734676944461349 0  0.3990774181991369 0.6395744274345501 0  0.3893098346706337 0.5981339437685964 0  0.4338166442351258 0.6185165507063383 0  0.6279363620429745 -0.4565435787275231 0  0.6312840511604255 -0.4860490351929785 0  0.5996715865838221 -0.4604967465906787 0  0.6526083034174084 -0.4059154258837066 0  0.6197745815523182 -0.4212406070573856 0  0.6486815208598259 -0.4353274396169158 0  0.4649732065653127 0.644584090322598 0  0.4599964336777923 0.6814720875592684 0  0.4279777209540104 0.6627903347584941 0  0.2975684718453496 -0.8148220276284073 0  0.3179682113657381 0.263918242958 0  0.3628401903392844 0.2500335966355188 0  0.3530563289991845 0.2925471847247619 0  0.4232385316346942 0.8552292225523547 0  0.4569048097115439 0.858221905521001 0  0.4307446923074866 0.827091753929455 0  0.3439417099236332 -0.6121401089662168 0  0.3336331521217348 -0.6585880711314719 0  0.3139760020744123 -0.6324626775742214 0  0.2719355431455361 -0.330845579650162 0  0.3107513078508887 -0.3502396500625142 0  0.2992402364002463 -0.3247377452555354 0  0.7273890775054482 -0.452979262649708 0  0.7740427483845034 -0.4429675650790261 0  0.7468751089474893 -0.4300755894100581 0  0.8094614961641105 -0.4108191651756637 0  0.8477992092768174 -0.4083547801526269 0  0.8147339578252027 -0.4415671870382508 0  0.8922858534485971 0.3232125341049065 0  0.9044971171791155 0.3534240947485029 0  0.8629196718937504 0.3371044152463425 0  0.2407883623302344 -0.1479473392268321 0  0.2730272609728244 -0.156497438393835 0  0.3307913455705996 -0.32209112772894 0  0.766275469157831 0.3373705917986213 0  0.7270117214537798 0.3523913526578815 0  0.8319607513199512 0.3272605228421564 0  0.7989049251164099 0.3309304901182515 0  0.824837263545015 0.2977687172274117 0  0.249516574909788 0.1178078844211209 0  0.2716680139985999 0.1561236297338532 0  0.2469001150279252 0.1448816014928452 0  0.4612095051405225 0.2796267787367558 0  0.4399968457209265 0.2520938278100669 0  0.4320408894657748 0.279964208566487 0  0.3045634694125486 -0.06243381060209528 0  0.2942947845364635 -0.09362749621171698 0  0.3353695251572911 -0.07291031180159256 0  0.4856483370451747 -0.1033700494823073 0  0.5093748673045058 -0.08876042035668917 0  0.4999146978089363 -0.1259913802953386 0  0.4521025910604496 -0.05765972030898988 0  0.446660205837974 -0.09817789138252699 0  0.429913083215876 -0.07530382919885834 0  0.550527153827516 -0.2346250253440536 0  0.5261574413737675 -0.2679083337833422 0  0.5524186399467528 -0.2754608763866272 0  0.8131787875009359 -0.01927434390670453 0  0.8240159726573677 -0.06354884655944232 0  0.7910692363604553 -0.05611622361698246 0  0.7069393984352208 0.08539575425191143 0  0.7027708824288577 0.117088790284357 0  0.7398787353706419 0.1215224010900196 0  0.6210119602230632 0.3495795219907357 0  0.6330973247234325 0.3222513631541384 0  0.6006449749607594 0.3266654546086818 0  0.3205094818381062 0.2935230830304627 0  0.8692238381416554 -0.06937336933960382 0  0.8920901992014005 -0.03383852388756705 0  0.8528265591974253 -0.02551578573929181 0  0.313677012066451 0.4739757357189519 0  0.356933486269603 0.4532178779552468 0  0.3212332021116325 0.4421879101504542 0  0.7993845088512088 -0.3191032448008495 0  0.7981393611444598 -0.3656515995679219 0  0.8371820238843944 -0.3415922536812541 0  0.7572754232728257 -0.3433258676436134 0  0.4302969745649615 -0.2395035413732142 0  0.4759315572375045 -0.2376518511867936 0  0.4544063406789307 -0.2667901314395152 0  0.52632051276521 -0.1860379727460288 0  0.5127021816032775 -0.2231463284444579 0  0.5130774703705813 -0.7271685383126054 0  0.4981922147610836 -0.693527886028845 0  0.5955362440817511 -0.539296132230121 0  0.6269403852469492 -0.5154243913626334 0  0.5941310535234843 -0.5134743264378505 0  0.3715370558029863 -0.1276927708807367 0  0.350771913427069 -0.1691674218569566 0  0.3383247145665093 -0.1369998995062197 0  0.2571348934472276 -0.114848350484653 0  0.3245813686030676 -0.5090938006310397 0  0.2898101893773494 -0.5322742382375469 0  0.3097668948301008 -0.4870249702742697 0  0.436389274477459 -0.497106737241813 0  0.4182472220506184 -0.5230574098665104 0  0.6860123772503671 0.6015382248079207 0  0.6559578052262283 0.6098402848363254 0  0.6659102595680665 0.5774981687032396 0  0.5153107235880576 0.4679293864478142 0  0.4746392728257074 0.457645312765729 0  0.4876578830882682 0.4917250737488673 0  0.5381660976947072 0.3647208202273673 0  0.5305949181784023 0.3232975171575244 0  0.5550807010809974 0.3402256732513771 0  0.658480117055714 0.3380183588705503 0  0.2839087186237294 -0.3719978169189649 0  0.2838678752012256 -0.4022164590173402 0  0.2548745784299392 -0.3724504092108006 0  0.325728135299952 -0.3813786458865954 0  0.3484244504069957 -0.4080754036437784 0  0.354013158286477 -0.3803281064287605 0  0.4715292481904923 0.7313591138687013 0  0.5001911911600448 0.7534954224541985 0  0.4580711757577816 0.7571756731497552 0  0.6529518573269545 0.2028453820933581 0  0.6407642248551683 0.2259810857045496 0  0.4712310949182194 0.4158324750007106 0  0.5010709803688921 0.438678961626021 0  0.7775764120351573 0.4699429140366598 0  0.7381200155673009 0.4904481012096953 0  0.7693873032885354 0.5023992010519285 0  0.4909250896077311 0.3072056924027643 0  0.4630002285094164 0.3074956729722098 0  0.4220797114502626 0.1993743766825203 0  0.4527996090503869 0.1717119486727273 0  0.4493873393890447 0.1988113934912993 0  0.9447375387382059 0.1137033102122951 0  0.9433340449978349 0.1580653845752386 0  0.9647496713575022 0.1365396774390762 0  0.7550430303852204 0.2032040656165406 0  0.7275746345475357 0.1789818640606326 0  0.6866301107036872 0.2788962205154981 0  0.7195828011484168 0.2705957722737886 0  0.6425041534568772 -0.08060062161762281 0  0.6228846673142369 -0.04336766294357697 0  0.7087130943391372 -0.05544416125599747 0  0.5490320459835896 -0.149397767245787 0  0.5690588180890829 -0.1916731886489846 0  0.6158186668233055 -0.190331770691776 0
[...]
<PointData  Scalars="f_2500-2"> 
<DataArray  type="Float64"  Name="f_2500-2"  format="ascii">1.0271220026243937e-01  1.0936659858695622e-01  8.8703666524243094e-02  5.4794105557230821e-01  5.6129460930785913e-01  5.4571761156665310e-01  3.5138677724195239e-01  3.1272335690293218e-01  3.3796946541140888e-01  3.0342586543379935e-01  2.8832473480881032e-01  3.1678301447767976e-01  1.1326958599471772e-01  1.3260281728565387e-01  1.1226274934711127e-01  3.9229956390753296e-01  4.2720761852219308e-01  4.0878164107803511e-01  5.3785944104964134e-01  5.1711208942011500e-01  5.3942301505786316e-01  2.7757658890483888e-01  2.6199415312969015e-01  8.9983879068542466e-02  1.0337090068775698e-01  7.5024334380661084e-02  3.9779697381772638e-01  4.1966968378272079e-01  4.1750004592396545e-01  1.4614959364187885e-01  1.2268192038990187e-01  1.3867234538700821e-01  2.2383475813606030e-01  2.2642023995231894e-01  2.1000543627907078e-01  2.3691908210560822e-01  2.3224254583235035e-01  2.1620609765351856e-01  7.8711301402108677e-02  8.1873604649508866e-02  9.9928248835207331e-02  2.8829316021885987e-01  2.8616222607471697e-01  2.6534415124761423e-01  2.6283836842673214e-01  1.2483044741424554e-01  1.5165655026261260e-01  1.2673119528905213e-01  1.3949622104464410e-01  1.1916740957568246e-01  1.1649285339747179e-01  3.0051847592643177e-01  4.3690940007375077e-02  6.8314972051967154e-02  6.1702326864388722e-02  2.2563628056528853e-01  2.0134251738008457e-01  2.3170090093642268e-01  5.7558512320209598e-01  5.7339315447686201e-01  3.2206339075705276e-01  3.0438210231164087e-01  3.0005274956470818e-01  2.5295300530899756e-01  2.4227370456512126e-01  2.7303946188170608e-01  1.5545042497140968e-01  1.5894733096698557e-01  1.3678201314153685e-01  2.2852062601189374e-01  1.9401167356737165e-01  2.0785321686478880e-01  2.9228332898748999e-01  2.5553053049200741e-01  2.9268193099751677e-01  1.7123341231594880e-01  1.5364699017840622e-01  1.7845468968229677e-01  2.7829760416038324e-01  2.6509357221039465e-01  2.5603757597152410e-01  1.6322947212183633e-01  1.2853268391359696e-01  1.5486253897994395e-01  1.9864864964443046e-01  1.9958661231451760e-01  1.7713193674373312e-01  7.6708175467297815e-02  1.0274268252459069e-01  6.6872629544409867e-02  4.6251182626602555e-01  4.8968171023627760e-01  4.6527839876822197e-01  1.9535596368030345e-01  2.2987458820968598e-01  1.9417840355877400e-01  1.7618687523115883e-01  1.5915448116982123e-01  1.9363360505414798e-01  1.8310304284021067e-01  1.9933936348819925e-01  1.7225882666701561e-01  1.6076845478315718e-01  1.3804408348031519e-01  1.6569039896390067e-01  1.0065460451901569e-01  4.7412951203484427e-01  4.5442283478872247e-01  4.4080329333638163e-01  3.3006403625886499e-02  1.9094964335104915e-02  4.9020907205037212e-02  2.3961699511467580e-01  2.0872398057577510e-01  2.3642105768529209e-01  4.6340922673313573e-01  4.3335703701457901e-01  4.5325796860022005e-01  1.0931939684087767e-01  8.1179505735809732e-02  1.0521716885865581e-01  6.8380906681137318e-02  4.2942448096177713e-02  5.3804031680463514e-02  3.6691329485908995e-02  1.9722232581415249e-02  5.3707101326899480e-02  5.5635211339786650e-01  5.3809552091506097e-01  4.3852146175845036e-01  1.2532591663307716e-01  1.4978386501524335e-01  7.9577430975614885e-02  1.0294261025731449e-01  9.3131619319953576e-02  5.5979138716984622e-01  5.3896035449474566e-01  5.5410174071570606e-01  3.7728081240422234e-01  4.0311824004462754e-01  3.9683894639145223e-01  5.4054191937485685e-01  5.4155424487052528e-01  5.2070822023212260e-01  4.1144492736157612e-01  3.9527187954150095e-01  3.9620109011739718e-01  4.4296791861843637e-01  4.4167578483445613e-01  4.5710846527034510e-01  3.2826301087277571e-01  3.3486841206873963e-01  3.1224499739494854e-01  1.4512959492412897e-01  1.3464370894242050e-01  1.6225414293309470e-01  2.3117791306692759e-01  2.3077383252057465e-01  1.9890678328713524e-01  2.3059084604818833e-01  2.3253446385692186e-01  2.5543490351746528e-01  4.5846450487797696e-01  9.7133275414174505e-02  8.0365766225564933e-02  1.1230855325243128e-01  3.5338566269273108e-01  3.4630700610339343e-01  3.7135470182794783e-01  1.0624493642416095e-01  9.2290309415058350e-02  7.1469769734366348e-02  1.3027693627965589e-01  4.1470979869889762e-01  3.8319191078228504e-01  3.8718325803026671e-01  3.6174432807600454e-01  3.6104150381098765e-01  8.2635662721322528e-02  1.1172358367188551e-01  1.5344595594220561e-01  1.4675761169193635e-01  1.6887396673516417e-01  4.8836228827457234e-01  4.9077718244840651e-01  5.0694170399950234e-01  5.5653474600369446e-01  3.2371703163491478e-01  3.2184845995761652e-01  3.4591744813711234e-01  2.7456322841330721e-01  2.6749307241247383e-01  6.4850946834888484e-02  7.8174165211876173e-02  8.9336882862958877e-02  2.4491748410550182e-01  2.7633604421515162e-01  2.4793990352736586e-01  2.8423351677301395e-01  3.0885823768044590e-01  2.8338896031497701e-01  2.0713302684324578e-01  4.3368015249092845e-01  4.1486887005538997e-01  4.4613634219752496e-01  4.0763785129453439e-01  3.7954459890763365e-01  3.9289168453222428e-01  9.8630925087416332e-02  7.1256069221542623e-02  8.6487162738775394e-02  2.5546315049122331e-01  2.5901854310586109e-01  3.0278122312125033e-01  2.7058305552835782e-01  6.7913832632018181e-02  8.5600387999935357e-02  5.9800349543603755e-02  3.4443168275556674e-01  3.6336580841079230e-01  4.3469132156570556e-01  4.2111235543355913e-01  4.1534467407405035e-01  3.4655886958393965e-02  3.1195343718326073e-02  1.7703108703874013e-02  1.7167444143641425e-01  1.9927381044010556e-01  2.0634297894934087e-01  1.8280098949852944e-01  2.8632060474672649e-01  3.0631094510540935e-01  2.3216520155092485e-01  3.5283948762273609e-01  3.2662944328272636e-01  2.8896993905633617e-01  3.1207464547713731e-01  3.2051448487050421e-01  3.1022055950255684e-01  1.5904328185062619e-01  1.7754872312819997e-01  1.5310003013804260e-01  2.2591791142682141e-01  1.7916901282233008e-01  1.6892293899555064e-01  1.5593789814425621e-01  9.2180808411872095e-02  9.5601479530740996e-02  7.2036357783860791e-02  1.1694282277857709e-01  1.1284515053784726e-01  1.4638147649981706e-01  1.4229724164261648e-01  1.6791885981077959e-01  2.1228301550486525e-01  2.0063176511694608e-01  2.2259952284121209e-01  2.5630944393665267e-01  4.7063234599393067e-01  4.5483610239516631e-01  4.7642565158996103e-01  3.8303560766289468e-01  3.9132175062478397e-01  4.0224224911422679e-01  3.6773870290726507e-01  3.6595988705875715e-01  3.4712134320155663e-01  4.5174477743890096e-01  3.9270369250808046e-01  3.7699186270332558e-01  3.7229367082855680e-01  3.6048411912414352e-01  3.5787462780856705e-01  3.1870117193593456e-01  4.1548456471375150e-01  0.0000000000000000e+00  2.4560832875858134e-02  1.8504493631709421e-02  3.4246676133295617e-01  3.6878522047722978e-01  3.6861761035045365e-01  1.9674523757505952e-01  2.0850414872427026e-01  1.7023882624399919e-01  2.1442847296751508e-01  1.8341691806150190e-01  9.7692688966706673e-02  1.0040155904681528e-01  7.7768297040867726e-02  5.7892358529973237e-02  5.6087898665670405e-02  5.2628110522500127e-01  5.1060907634801200e-01  5.3131077235214041e-01  5.4677099283226716e-01  5.3003286397554639e-01  5.2820139881084038e-01  2.5007507624960718e-01  1.4796852978208264e-01  1.4097801606177737e-01  9.3649369275371319e-02  1.6536547856446948e-01  4.6692758734969170e-02  2.4651515376628415e-02  4.3347381889280279e-02  0.0000000000000000e+00  0.0000000000000000e+00  8.7775132708724557e-02  6.3498634617989630e-02  6.6064944557154726e-02  3.7740624911765536e-01  4.0557495531794269e-01  3.6891945977408774e-01  6.5314541367280363e-02  7.2524858957060512e-02  5.2096173593623195e-02  1.6903073532898055e-01  1.8699867849664031e-01  9.5847132873652666e-02  5.2934545912366104e-01  5.1647169856181940e-01  5.3513124881154639e-01  8.7752770009647360e-02  2.1086227707531094e-01  2.3886323428413883e-01  2.0933636304778722e-01  2.0798138028378113e-01  2.3975976566053642e-01  2.6926125522934935e-01  2.5556601622949610e-01  2.9847600806531438e-01  3.0006155494623615e-01  5.0048241258682824e-01  4.7717919743354953e-01  4.8364406682108346e-01  5.4046016149303766e-01  5.1768767012938688e-01  5.1832061106464344e-01  1.1943747717945777e-01  1.2406202953625951e-01  9.6990823142032806e-02  1.3048403966129291e-01  1.4877177562456873e-01  5.7871906423500895e-02  7.1602063035903482e-02  4.9157171501188014e-02  8.6153103555370397e-02  1.0906093172587535e-01  8.1059152583816477e-02  1.5808300137164816e-01  1.2353343938920164e-01  1.4637824714592415e-01  1.2850779366852194e-01  1.4454519980939420e-01  1.5972137878381462e-01  4.0059019963471670e-01  3.7744165621089865e-01  3.6382704264135485e-01  3.2779555507811253e-01  3.4058944298856897e-01  5.5269357570771427e-01  5.6682334764078379e-01  2.0165933348299775e-01  1.6677714956946788e-01  1.6134767525440280e-01  1.3430038938427541e-01  1.2086342072505819e-01  3.8880468719399514e-01  3.9953341296226863e-01  3.8372383694673057e-01  2.1309200564553035e-01  1.9112409191943949e-01  1.8806114174142918e-01  2.1041370240493212e-01  2.2675750847395290e-01  2.5676928778432362e-01  2.3754433647173520e-01  4.4196175869475753e-02  1.9015146002693332e-02  5.2101161617542684e-02  7.6975571685897040e-02  5.2525885071060527e-02  4.9355587497160423e-02  2.3711060050769138e-02  2.4661369711437026e-02  6.5624865144877448e-02  1.2116136247757692e-01  1.3251274605794530e-01  1.1096784912776847e-01  6.4331342445479417e-02  8.1551460698708389e-02  3.9889054612890433e-02  1.9940210637468814e-02  7.6733668319499848e-02  8.9666126359955883e-02  1.6795123937615070e-01  1.3761431665612422e-01  2.1647356403874687e-01  4.5133712618484666e-02  2.9310445705452565e-02  5.3760261775852476e-02  9.6195392066668856e-02  2.5830756658961807e-01  2.7353348087016938e-01  2.8204894403117792e-01  5.5451189430541170e-02  7.5968770487656254e-02  4.6320851344345416e-02  7.9424314612088251e-02  1.0812139097860861e-01  7.5837291109947011e-02  8.3449113516309639e-02  9.5624489958121034e-02  6.3763918910780884e-02  5.6298739985499509e-02  2.8665007967687214e-02  0.0000000000000000e+00  2.4764057732488604e-02  3.1899004367209237e-02  5.7739852341463303e-02  5.1641409651313648e-02  4.4364632727497938e-02  2.7233030995963987e-02  0.0000000000000000e+00  0.0000000000000000e+00  1.9074380272549547e-02  0.0000000000000000e+00  0.0000000000000000e+00  2.6214705312003438e-02  1.5259517788905337e-02  7.0969571886057820e-02  6.8618300738521251e-02  5.3765444335043995e-02  3.9077975960531128e-02  5.2802238428788451e-02  2.0933313412202163e-02  1.0266419058792350e-01  1.3755950085728644e-01  1.3207193601726222e-01  3.7892978416167976e-02  1.9019827969680086e-02  3.9195876056222947e-02  2.7010372191375220e-01  3.0452999153642496e-01  3.4145757508516461e-01  3.3494277189217092e-01  3.5317780855329206e-01  5.1478471971401107e-01  5.2228235469981354e-01  5.0884474933855239e-01  4.3474339777243132e-01  1.2351615527693560e-01  1.8266608238512272e-01  1.5671622778879735e-01  1.7398524800694784e-01  1.1928674526211525e-01  4.2641690889689936e-02  2.2337489444922205e-02  6.4884224318497247e-02  4.3154370385689103e-02  4.6484005238660350e-02  1.3311721942294355e-01  1.2429536706929833e-01  1.2873731140334610e-01  5.0035292938487164e-01  5.0442596146127638e-01  4.2605894902942293e-01  5.2948478595369934e-02  7.5766029359126630e-02  3.7407981041840989e-02  7.0781836566870690e-02  4.4472506757370869e-02  4.8702682083135235e-01  4.6526320809138422e-01  4.6755121901249430e-01  4.5606314290800620e-01  4.2933189418411538e-01  4.4786489676333180e-01  4.1054260144704691e-01  3.8355220269955975e-01  4.0130155723401228e-01  4.2539909348327326e-01  3.3140465686689669e-01  3.0517509513220559e-01  3.1899440307096943e-01  2.3682607798502642e-01  2.2042887418412355e-01  2.4520159189923146e-01  2.9364499485348927e-01  2.9986389422805931e-01  4.9056151265212872e-01  5.0551010622107839e-01  4.9531591406881342e-01  4.8083305950699179e-01  3.5929733732301206e-01  3.3727554251135505e-01  3.6274000396842271e-01  3.5126449500652324e-01  3.7863631830305805e-01  3.6516118079146365e-01  3.4378491283414592e-01  3.5237448482378908e-01  3.1616346685908125e-01  2.8885806534437092e-01  2.9434711866390489e-01  3.0999036855554452e-01  4.1988181854889783e-01  4.2049879488103281e-01  2.8139747737156634e-01  3.0458266036748255e-01  3.0978578192406236e-01  2.6445778119500535e-01  2.8573407838282611e-01  3.1882423868074694e-01  2.9147686788000371e-01  1.4019091788179078e-01  1.6288226755077997e-01  1.3446753273522841e-01  1.0222939139729650e-01  1.3472776675528622e-01  9.8910062346012378e-02  1.7186196107824886e-01  1.5640218145794199e-01  2.7208701483006224e-02  3.6163676020546334e-02  1.6567490995872104e-02  9.1102735503074891e-02  4.2414329236846182e-01  4.0122299683325957e-01  4.5929791707124917e-01  4.6934292073246392e-01  1.0084397096493972e-01  1.2574069157455889e-01  1.3262806991721959e-01  1.3795911110898479e-01  1.5168964487914879e-01  4.4038697781525160e-01  4.4410002748424543e-01  5.6062451044445261e-01  4.7373491661453065e-01  4.7974621882559104e-01  4.5280341445757660e-01  5.0498467685362658e-01  5.0012877105335374e-01  2.1446475435509171e-01  1.8394130497995259e-01  2.0031019006123349e-01  4.8639905671542527e-02  2.2020924914789086e-02  5.5056898336817733e-02  4.6031918366757923e-01  4.6865221202455398e-01  9.5897292898170144e-02  1.2349946993759983e-01  5.2090731222610687e-01  2.1083772251145286e-01  2.3754642434712647e-01  3.0750123381851796e-01  2.9414102770218875e-01  2.8252972632773421e-01  1.7513911351119846e-01  1.7188910515254291e-01  2.0493280831663316e-01  2.0409030121126034e-01  1.6846079873873057e-01  1.8443583322064669e-01  2.0626783786408021e-01  1.7588657898437079e-01  4.9620635705653865e-01  5.3993114375207485e-01  2.4771802970748508e-01  1.1805717680166981e-01  1.1156016954206442e-01  1.6934234291576059e-01  1.4060013057238283e-01  3.1128627984883597e-02  4.8077915721102871e-02  6.4033859415710215e-02  5.8697230910908760e-01  2.0839501717274148e-01  1.4171414072540578e-01  1.4188057687747346e-01  1.7552938811565880e-01  2.0289230730371952e-01  2.4720346315823036e-01  2.7611998925789977e-01  2.7625456115046970e-01  2.5623502274172483e-01  1.7767069983124859e-01  2.0487589807529591e-01  2.4202335229224420e-01  2.2582178877781997e-01  2.5803092088666846e-01  2.3334557593737731e-01  2.3647222767186132e-01  2.3218017452153952e-01  2.1557392128499570e-01  2.6796999013054595e-01  2.9029711020322185e-01  8.4444242340947884e-02  6.3124009559937272e-02  7.2992179878730426e-02  6.0983902198589769e-02  8.0487510947634039e-02  1.3625800307751784e-01  1.2612903310905291e-01  1.0611923023905674e-01  7.4307291948380025e-02  9.8241994564809365e-02  4.0853025884110793e-02  6.3875481219901165e-02  6.5553404335488369e-02  4.7484156143366381e-02  5.8576397651471143e-02  7.5221901165915664e-02  8.0308578527225755e-02  3.0569764087900081e-01  3.2513687195893837e-01  9.7433608088960053e-02  6.8917953541759516e-02  7.5694936099719404e-02  0.0000000000000000e+00  0.0000000000000000e+00  2.1266584929751926e-02  2.9075353425331124e-01  2.6946660195271660e-01  2.9410014819447433e-01  2.6307651360730838e-01  6.6903345789539534e-02  7.4474063348835634e-02  7.7410708430012201e-02  1.0064992020520272e-01  9.9838412043707081e-02  1.1560269395522364e-01  1.0214695059467663e-01  1.3923388855889723e-01  4.4324456961427332e-02  1.9633092392654532e-02  2.1139285727259646e-02  3.4608698306696434e-01  3.5130819468700081e-01  2.9104778768914441e-01  3.0791309582633186e-01  3.4679589445921082e-02  1.6606492654674718e-02  3.6502031370118107e-02  0.0000000000000000e+00  0.0000000000000000e+00  2.2685066104542500e-02  4.8652269044682964e-02  3.7769426520300381e-01  4.7110485175524708e-01  6.2056059876228101e-02  3.3188624495084285e-01  3.3228946193337783e-01  1.4208780989893366e-01  1.2007318792367817e-01  1.8383883822160788e-01  2.0680408988205348e-01  5.2030755966970876e-01  5.0450669950840932e-01  5.2048825554407963e-01  1.6540662884664641e-02  8.9186402440378523e-02  1.1587125624622281e-01  1.2921519342261220e-01  0.0000000000000000e+00  0.0000000000000000e+00  2.7389565961931955e-02  1.9435714891791696e-02  1.7905514590299368e-01  1.8903972907580882e-01  9.7338181718303426e-02  1.1212937339008713e-01  3.9135913020901841e-01  4.1609890188677562e-01  3.3192466752119332e-01  3.5536455612833134e-01  3.2049676885761019e-01  3.3364541595730451e-01  3.7871461838434450e-01  3.5180742194051795e-01  4.8896097265666782e-01  3.3965371078679120e-02  1.6041399875884186e-02  0.0000000000000000e+00  0.0000000000000000e+00  2.6286915651531136e-02  2.2008806242854312e-01  2.4320856387684597e-01  3.1318636489143278e-02  4.7905390399978570e-02  4.6880394422433060e-02  8.5073339259386746e-02  2.5813315958761657e-01  2.3175708420187383e-01  2.3506313166213985e-01  2.5970999104056514e-01  2.2369765248683091e-01  1.5237228151003998e-01  1.7047211347082011e-01  1.4866339624707173e-01  3.9088360872534950e-01  4.0742154475422193e-01  4.2667471852305205e-01  3.5251151182546486e-01  2.4915943405731855e-01  3.3143730801733484e-01  2.5732923161494792e-01  2.6545820480386639e-01  2.7496305987831304e-01  2.5311305001367279e-01  4.0882507392130640e-01  3.9112927309927670e-01  4.3805877818739775e-01  4.6321537309273575e-01  4.7446859385749535e-01  8.2550293399835536e-02  1.8465843054284078e-01  1.9004112116018276e-01  1.7171938707763204e-01  1.5555985216968585e-01  1.5602055968410861e-01  1.2836732972081827e-01  1.0688317508759002e-01  1.3495921535932098e-01  1.7956729220498940e-02  4.4038541569755736e-02  1.4565783565576629e-01  1.4778847177668508e-01  1.2868244868908432e-01  1.1516882308544744e-01  1.2519287391125727e-01  8.5492351986549947e-02  8.2538826513051750e-02  1.1545327380781802e-01  1.0527281717645560e-01  1.9624809575096361e-01  5.1611425520592680e-01  5.1588023694455187e-01  1.5364952788855102e-02  5.7187485013779449e-01  5.7283634275211237e-01  6.5430801465333935e-02  3.2228254448024346e-01  1.4472804868823999e-01  1.6667050659640245e-01  1.4909737068618556e-01  8.0692172597779471e-02  4.3719575096130399e-02  2.7281718592724846e-01  3.4185600313480657e-01  2.8128644992995105e-01  2.9688325446994712e-01  3.0347802051982437e-01  3.2519813260195918e-01  3.4063370120605407e-01  3.8497620172653590e-01  3.5440522869039115e-01  3.7060850361335884e-01  4.9061770322235720e-01  4.9021745826858015e-01  2.8917401856882285e-01  2.1535432340951699e-01  2.5329407503470075e-01  1.8457531842960070e-01  2.4936598163358153e-01  2.7491520717979706e-01  2.6219456132147462e-01  2.4040269273826839e-01  9.3398556676080047e-02  7.2334368659395923e-02  1.3930903812962217e-01  3.6177393393826029e-01  4.0369109906487266e-01  2.4195546867609555e-02  1.8820505792501406e-02  1.1533163412234201e-01  1.9533681765968081e-01  2.6162405858678400e-01  2.7620013972101676e-01  5.1244634898577957e-01  4.9361888226124973e-01  5.1247222925300739e-01  4.2023201573683522e-01  4.1016180767672517e-01  1.0648701432974463e-01  1.1259905635974891e-01  1.2746894616953131e-01  4.9093106451055683e-02  4.3613024206180850e-01  4.5487823846436692e-01  4.4426507486212041e-01  5.0421055595995423e-01  4.8693231280590188e-01  4.8711017450096605e-01  9.1730208251205481e-02  1.6184178345141628e-01  9.2553110500659605e-02  1.3621695486347712e-01  1.1866386036834455e-01  1.7737364386825966e-02  0.0000000000000000e+00  0.0000000000000000e+00  1.9052359402554614e-01  1.9157202772845069e-01  2.1622340946064417e-01  5.7033601025374336e-01  5.3917021136399224e-01  2.3215674788467772e-01  8.8476820085743021e-02  8.5776398311490601e-02  9.3161845008598976e-02  4.8093317760500776e-01  4.6208952624162469e-01  4.7576130384002718e-01  4.5748950261200000e-01  4.8416885650301927e-01  4.7532692965395862e-01  4.4904090652380674e-01  4.0954419477386761e-01  2.2607751485454936e-01  3.5482713553075601e-01  3.6006966918603461e-01  3.8004801830834135e-02  6.3797701149182692e-02  6.0052396154272887e-02  7.7130882181125474e-02  2.7107290244126208e-02  3.451767606