<?xml version="1.0"?>
<VTKFile type="UnstructuredGrid"  version="0.1"  >
<UnstructuredGrid>
<Piece  NumberOfPoints="4266" NumberOfCells="8278">
<Points>
<DataArray  type="Float64"  NumberOfComponents="3"  format="ascii">0.332914414052326 0.6495186433047222 0  0.350035852606398 0.6547949268996196 0  0.3447079687368382 0.641666296524555 0  0.1509629198243326 0.4394805475385499 0  0.1574618691699577 0.4256374769288144 0  0.1639598037427407 0.4371351587205499 0  0.3398416053252553 0.809393929507541 0  0.3182425982666752 0.8112424579812687 0  0.3303994577747308 0.8261781287051263 0  0.2807025901357054 0.7290648010030609 0  0.2693712444400472 0.7397307729917455 0  0.2675171021349819 0.7264088643605077 0  0.5829764460070728 0.4876477017753671 0  0.5636631415662405 0.4806275825024552 0  0.5760180926912839 0.471876660868964 0  -0.1271013736123637 0.8128950760141003 0  -0.1445811026190907 0.8119118999057399 0  -0.1316347946497995 0.7953214846907589 0  -0.4581654891279018 0.7050956478196405 0  -0.4495185704017219 0.6919162010453052 0  -0.4448129225315993 0.7121783443626279 0  -0.1880292666509401 0.6948349589189414 0  -0.2018759567934805 0.679511249409967 0  -0.2024562418194335 0.6939534755125041 0  -0.2140543535049902 0.8855533563615821 0  -0.2177606820535586 0.9056463175150016 0  -0.2018623987848239 0.898190586260888 0  0.4322090051131867 0.6624612598186196 0  0.4146876010546104 0.6789232817918601 0  0.428503716053142 0.6848116787928238 0  0.4029812328035552 0.8407687967874943 0  0.4051394625148355 0.817767417981298 0  0.4178977239794076 0.8281891941993458 0  0.006078813178473639 0.7670889272345903 0  0.02260651009724353 0.7633305111235777 0  0.005125719913978016 0.7490533914639859 0  -0.1571199485664077 0.7620018712563817 0  -0.1746605350189528 0.7770146890610292 0  -0.155743362764028 0.7794691025403202 0  0.1413607558117983 0.4630356083621213 0  0.1374150801464661 0.4794310028365596 0  0.1232856871789455 0.4639250448759384 0  0.06256031293062904 0.8302272950216463 0  0.04798720663564734 0.8386697515782279 0  0.05348580465792466 0.8161067716706272 0  0.07804752670323852 0.6400824141788281 0  0.06033342557497019 0.6526757464603348 0  0.07854531892308642 0.6595378398448787 0  -0.507622037525672 0.4070516661891727 0  -0.5081901160223834 0.3899509166143055 0  -0.4921674949269925 0.3987316133739493 0  -0.3068319627397568 0.1582865587979037 0  -0.3296560711934549 0.1619170474326295 0  -0.3168146285735117 0.1716618704250606 0  -0.4586196893549722 0.5584655526438173 0  -0.446943582453926 0.543154611764088 0  -0.465633660949158 0.5453818001333602 0  0.3831414326149375 0.8107099352150432 0  0.3753817424581156 0.829695642271972 0  0.3920273310628238 0.8281390440289584 0  -0.6749085222138679 0.334411519106221 0  -0.6637201098489627 0.3140132042669073 0  -0.6795939777218857 0.3185739991614875 0  -0.5791130661390927 0.7346014223532424 0  -0.5933681133834627 0.7381717694620178 0  -0.5748132513880116 0.7473695803479472 0  -0.5391069590138896 0.745165717765377 0  -0.5625738666025707 0.7530008968499093 0  -0.5578514271746238 0.7321226777682319 0  -0.2413621327137381 -0.1523138363781986 0  -0.2268202344970037 -0.1591382524790036 0  -0.2412464607625224 -0.1671917300371307 0  0.09927902037336662 0.9149708283062259 0  0.1157895516840189 0.9189776608398325 0  0.1063134374874596 0.9315309264794555 0  0.06116446405179456 0.4911833230803823 0  0.07730596882940004 0.4742920138205912 0  0.07830662548657039 0.4953344334897695 0  -0.101240928421921 0.758652892213407 0  -0.1126561174512113 0.7679041581977381 0  -0.09347689488007802 0.771127355971357 0  -0.6440398227190394 0.4357239888300835 0  -0.6359504943829237 0.4555801607307075 0  -0.6328217507707823 0.4415406738647967 0  0.7263802803538117 0.5631043356200172 0  0.7108704287310817 0.5595900727741592 0  0.7242940159102983 0.5425933715166618 0  0.5038718219523224 0.5544334551657892 0  0.4877560869605388 0.5396871818096673 0  0.5044160012643252 0.5319783219067643 0  0.07081074097663426 0.3186286742512116 0  0.07346941078982666 0.3401307037044159 0  0.0576197784904541 0.3239018341387644 0  -0.3005413308806231 0.1129696382239433 0  -0.3192043351541243 0.09836040108305644 0  -0.3187938517836389 0.1170614402710302 0  -0.04851146773134357 0.4867872264827524 0  -0.0472247571585732 0.5033083754239025 0  -0.06335753174075238 0.491934542470062 0  -0.3892070283047418 0.4786861355265704 0  -0.3714027727299681 0.4756864802956608 0  -0.3827974118685362 0.4623921713509622 0  -0.7411095007633245 0.575029805494202 0  -0.7605003164559296 0.5782101812185654 0  -0.7488870496543684 0.5883132185438822 0  -0.7235805144123104 0.5200565098232155 0  -0.738618812363851 0.5236972966413135 0  -0.7284642311301335 0.5327625764414463 0  -0.2314719560991426 0.03549491619166019 0  -0.2303332909622441 0.05439758634173875 0  -0.2400458841910318 0.04549702594926252 0  -0.008296326578782015 0.6086478568131694 0  0.01122982598345495 0.6123443607668545 0  0.003980826942925998 0.5972159239537265 0  0.01371423415457438 0.8573404176908449 0  -0.002794414052867285 0.8659378714417731 0  0.007843166883866432 0.8762473671836795 0  -0.06939556685310261 0.8588521408268257 0  -0.05948654623964005 0.8457213462672603 0  -0.0557236259197124 0.8588652639392508 0  -0.4589833292911141 0.5816849370690288 0  -0.4476215744943611 0.5677693785034353 0  -0.524949258381664 0.6828407606378746 0  -0.5150187895388144 0.6625705724119358 0  -0.5088018694929584 0.6781838611669838 0  -0.2818430264076795 0.0003382359467896529 0  -0.2652744050783558 0.01201766272913534 0  -0.2792800812328205 0.01792173624780021 0  -0.1375645435999634 0.02928053735830581 0  -0.1393867504822479 0.005795814591015106 0  -0.1580085151925672 0.0190537538730686 0  0.3315205285923649 0.4671007065140736 0  0.3125911820565935 0.4627236293547771 0  0.3198711767839099 0.4743601478668478 0  -0.4416327711127045 0.528188803075854 0  -0.42043207916408 0.5325084464725358 0  -0.4211118506379022 0.5184623300457841 0  -0.400894961242765 0.448519227309272 0  -0.3795398849611781 0.4381803585696618 0  -0.3779683559246526 0.1015844903635233 0  -0.382531330591133 0.08930344838901749 0  -0.3910048287120285 0.102886453132009 0  -0.3869421348601627 0.1749260482753183 0  -0.3757026843568829 0.1541503186649135 0  -0.367050066625653 0.1705222421176009 0  0.1697279419526465 0.3618104710983251 0  0.1894767621098231 0.3621593301494297 0  0.1766148606453463 0.3766321490635753 0  0.3175555361844976 0.6203848435927939 0  0.3345552866765177 0.6089124536076582 0  0.3249698706754737 0.5980365821192262 0  -0.1339413446256386 0.5457851785332439 0  -0.1526445775437433 0.5334441245528644 0  -0.1392346425806756 0.5326434877740723 0  -0.06425900875333679 0.4688403081854889 0  -0.05529929859147319 0.4516548662966833 0  -0.07615422062026381 0.463903402603304 0  -0.278483283260311 0.9185916019998196 0  -0.2956452215663841 0.907791082738426 0  -0.2823823305480626 0.9057518061522771 0  -0.3559212036505843 0.9070901940436692 0  -0.3342343936343474 0.9064002935227704 0  -0.3444887802934804 0.8952572882561013 0  -0.4224693536609981 0.7183353876298264 0  -0.4061482044249017 0.7039694892534414 0  -0.4025148468220963 0.7174557197369782 0  -0.2991768288254021 0.681309361225804 0  -0.2858448756879212 0.6885781091268239 0  -0.2869886080834934 0.6748151268474881 0  0.6782774147583657 0.7337563733932891 0  0.6645157295220289 0.71750992948401 0  0.6635479539083358 0.732281388692918 0  0.5867961229040197 0.5340133274712827 0  0.6002916769092745 0.5300916477538961 0  0.5929900107960145 0.5466215950402394 0  0.5159544060005026 0.6878176699708392 0  0.5122479088226618 0.6710487157848961 0  0.5030023430927832 0.6818864003643841 0  0.4208129660769374 0.7369214216995047 0  0.4161219642283353 0.7186054954352281 0  0.4034166386965947 0.7287978348653198 0  -0.05058840002958302 0.01664330261368143 0  -0.06782801487027172 0.01105825813027281 0  -0.06060561770281364 0.02607735719710087 0  0.08164933247143509 0.2630011494424497 0  0.09369464683973068 0.278533427859859 0  0.09810693527780626 0.2626749665166973 0  -0.1504872407416525 -0.1421626572733334 0  -0.1705165659739513 -0.1404373886184603 0  -0.1604755106946349 -0.1572460092334305 0  -0.1447129275324389 -0.106482705958092 0  -0.1419853542253846 -0.1252313490297633 0  -0.1561372649653827 -0.1177174579139968 0  -0.6951576928890359 0.4758963864002503 0  -0.7106723235953296 0.4708123916406384 0  -0.699431420230763 0.4627236578561629 0  0.4755169449756932 0.4909210876291945 0  0.494127149468629 0.4844880490678379 0  0.4892709553865416 0.500574861277703 0  0.4467729628007534 0.4663817228064593 0  0.4560778556466092 0.4845867088651602 0  0.4631507151083092 0.4694912030156104 0  0.2128942583195763 0.2644806730761504 0  0.2247761344637584 0.2517453977254175 0  0.2091130426491661 0.2490423695972016 0  -0.2875481774750799 0.09537363130635237 0  -0.3034182525195322 0.09642190706859868 0  -0.4515202253909735 0.2025862122920294 0  -0.4386405423918204 0.1828638087383335 0  -0.4523337628777539 0.1879882033728548 0  0.2794138014287033 0.9317363626854627 0  0.277358580676769 0.9472805712477746 0  0.2900975625439389 0.9410569185089307 0  0.2567741049371187 0.9104522999621892 0  0.2404500137637132 0.8947278027972118 0  0.2649032218030534 0.8904103733438133 0  0.2242467665771498 0.448158124301501 0  0.2295529427779222 0.4342960624490632 0  0.2385612639111096 0.4520321359849135 0  0.1170643917672381 0.3566870190192344 0  0.1110106043840692 0.3391497435850614 0  0.1240090541008423 0.33598826927084 0  -0.0790543871400315 0.492648131300411 0  -0.06321789373789302 0.5076469891182717 0  -0.1680294870233596 0.3033125654794206 0  -0.1522463381690819 0.3173597305697894 0  -0.1656108268022235 0.3252530803521215 0  -0.5328934950392848 0.8042508636529442 0  -0.5158006838270621 0.8085421858525899 0  -0.5267114469912973 0.8158140225539202 0  -0.4984766512980752 0.7147319776453481 0  -0.4961536227570694 0.7365122789311654 0  -0.4854796835698065 0.7259824008309884 0  -0.7453748565371457 0.449346994057572 0  -0.7497203529707557 0.46785017658
[...]
<PointData  Scalars="f_3411-2"> 
<DataArray  type="Float64"  Name="f_3411-2"  format="ascii">4.0470298537820432e-01  3.8508343413245599e-01  4.0699129149496494e-01  7.9013323899635479e-01  8.0374266460915389e-01  7.8728287213928116e-01  1.7646025095374998e-01  1.8614675391615979e-01  1.5839301176273130e-01  3.2481149873063558e-01  3.1548772259758950e-01  3.3587150279173117e-01  3.5772658422292869e-01  3.8783736578855466e-01  3.8176341502971833e-01  2.6050201055480976e-01  2.5759013656913399e-01  2.8617411835855622e-01  2.3269817960973591e-01  2.5687275409937521e-01  2.3447823999029677e-01  4.2034326652658649e-01  4.3726583497831972e-01  4.1553107472563011e-01  1.2666767382200228e-01  9.6788078735929900e-02  1.1264470311992437e-01  3.0977743956992465e-01  3.0264967855260921e-01  2.8355879748472568e-01  9.5379713828391388e-02  1.2440780187757634e-01  1.0225534230728174e-01  3.4683720023632220e-01  3.5215763054361726e-01  3.7482197511605475e-01  3.2985442346713506e-01  3.0128096676368465e-01  3.0367501354902604e-01  7.6493467472325949e-01  7.4554882724479121e-01  7.7017172841507031e-01  2.4542632778794052e-01  2.3395130710537437e-01  2.6809659866041563e-01  5.3551531775034733e-01  5.1938846628479307e-01  5.0600621122160905e-01  5.2662520417772840e-01  5.4194346463977006e-01  5.5274317389048266e-01  9.2806963551153343e-01  9.0510600457546486e-01  9.1230010163806363e-01  4.1594841670358523e-01  4.4572088838636520e-01  4.2445025340388814e-01  1.4813451435277006e-01  1.2728694893717635e-01  1.1903927683205376e-01  3.6846798902502431e-01  3.9792687714854769e-01  3.7245924446607387e-01  9.0938823487659859e-02  7.3924243885894872e-02  8.0172461782978030e-02  1.1391651121159406e-01  8.4352354291561543e-02  1.1282027702298540e-01  9.8459713157261741e-01  9.9160182748752090e-01  9.7739436736195062e-01  1.1312289844368244e-01  1.0427635773455923e-01  8.7623177057640680e-02  7.5055607068916830e-01  7.6960903663938496e-01  7.4187020700710748e-01  3.4960999313164798e-01  3.3277864635550719e-01  3.3168820295489992e-01  3.3050050326472435e-01  3.2321924913344435e-01  3.3975513449248723e-01  1.1484090341215319e-01  1.3612853735670860e-01  1.3589407760139183e-01  3.7474496831335713e-01  4.0848495330365320e-01  3.9968278804515850e-01  9.4687966989231187e-01  9.2534414988697844e-01  9.4426409270627876e-01  9.5202652755029715e-01  9.3940047069657640e-01  9.3375267970861142e-01  7.5822182085345602e-01  7.3640633834287772e-01  7.4913264214776643e-01  5.7737120526636609e-01  5.9737183047387876e-01  6.0216093873292620e-01  8.7179111908866611e-02  6.2039818348628907e-02  6.6435019766649728e-02  1.5657319457050700e-01  1.3505602017895363e-01  1.3935707088312599e-01  1.0253162894533197e+00  1.0235198646675314e+00  1.0177181353329943e+00  5.8972373122594868e-01  5.8410791511016458e-01  6.0656864931267240e-01  2.0738245364433375e-01  1.9433393431763613e-01  1.7877899035673167e-01  2.0098263132779068e-01  2.2201514739224945e-01  2.0240855742897063e-01  3.8750851753053028e-01  4.1529173740769670e-01  2.0153391154287034e-01  2.3524521039451968e-01  2.2196702698137089e-01  9.8770548819951165e-01  1.0012213666711360e+00  9.8921022762476651e-01  1.0802306555872463e+00  1.0807734137323239e+00  1.0714718451051302e+00  6.4227068497000983e-01  6.6296949171188213e-01  6.4320415301982481e-01  4.6877492044168417e-01  4.8419887022508662e-01  5.0032513781116650e-01  6.0026879626178309e-01  6.3230529904565447e-01  8.7850143696873251e-01  8.7681880074873686e-01  8.6358112906223083e-01  8.3978258093957159e-01  8.6168486116594578e-01  8.6321961590913920e-01  8.6913113053155822e-01  8.5855452425611778e-01  8.5001727543496219e-01  4.5576728428529434e-01  4.5908788244456911e-01  4.8082591762953786e-01  6.5785958043404602e-01  6.6797720377017600e-01  6.7403841845850176e-01  7.7921937465897173e-01  8.0234690928004526e-01  7.8305970004595038e-01  5.5657534289289434e-02  6.2968001015829667e-02  7.1628899896372888e-02  3.5140126226677747e-02  4.6645735631360534e-02  5.6486235364959808e-02  2.4425106149318088e-01  2.7601501712046445e-01  2.6062442855053264e-01  3.8261736918982736e-01  3.8027205426185462e-01  3.9938368825683068e-01  0.0000000000000000e+00  2.9759752375234948e-02  1.5628062000391595e-02  3.0596373408750338e-01  2.9436328201239415e-01  2.8568886534962956e-01  2.0371200002789444e-01  2.2757912503889707e-01  2.2276132811649901e-01  2.2078838205667839e-01  2.4876517278329094e-01  2.4477700094379523e-01  1.1071260238961973e+00  1.1041589139597556e+00  1.1046201268178721e+00  9.9315272746211225e-01  9.7711834090048066e-01  9.8875618097231643e-01  1.0439966484144723e+00  1.0346604465423972e+00  1.0320066053974530e+00  1.0603968669505037e+00  1.0549098594598516e+00  1.0511301707885665e+00  2.3029734435779209e-01  2.1491632504428063e-01  2.3603609124248703e-01  4.7651851285289143e-01  4.6329687858014540e-01  4.5104264763306701e-01  5.3402524693037101e-01  5.0407396592672316e-01  5.1315163695211707e-01  9.3388699432480327e-01  9.3592162361740661e-01  9.4794370458140820e-01  9.6903732745384774e-01  9.5450417104316021e-01  7.5068152498366492e-01  7.7648723238453510e-01  7.5734294196859719e-01  3.7445268185767634e-02  1.7215361617769924e-02  2.0287137180245097e-02  7.5705128047377834e-02  1.0397880045241223e-01  1.0031140173473885e-01  7.4232903752986201e-01  7.5547963351126002e-01  7.2875987195476888e-01  8.9620557194713302e-01  9.1595836994865942e-01  9.1472681012010759e-01  7.4529119161218371e-01  7.2823197295899877e-01  9.2654145084892359e-01  9.2113853422806302e-01  9.0739017844902603e-01  4.8755955355668741e-02  5.6794734328090804e-02  3.9482711040422461e-02  1.8619952988700078e-01  1.6099976721440681e-01  1.8322131564828237e-01  1.8773999285078152e-01  1.6758188303507762e-01  1.8892784000825127e-01  8.9809388806148005e-01  8.7345882686780474e-01  8.8876602281731409e-01  4.2666279030208060e-01  4.4700545213543635e-01  4.0927552214120855e-01  4.2020849406046096e-01  4.2907018055749740e-01  4.9514056259766026e-01  4.7466666889650660e-01  4.8478640851729266e-01  5.8071963177507158e-01  5.5884020985333105e-01  5.9311005196478161e-01  7.4940031853761857e-01  7.4839616254654195e-01  7.6454860275312309e-01  8.6786523252798720e-01  8.6278334512304033e-01  8.5246957389649469e-01  8.6904438397068606e-01  8.8520502589257832e-01  8.8657914071766086e-01  3.7558587276640459e-01  4.0175900109546897e-01  3.9034428237096769e-01  3.2098511187367190e-01  2.9792626436200598e-01  3.3354167063124374e-01  1.1138643742669022e-01  9.6966978809536183e-02  9.2885210442463853e-02  2.4325938281994491e-01  2.4463443681082003e-01  2.7239619590825503e-01  7.0599677447407283e-01  7.1616465062053181e-01  7.3770442949731396e-01  4.3723755530078573e-01  4.0782811237955530e-01  4.2876972480275044e-01  6.7405226941786822e-01  6.7668451241970196e-01  6.5494395756378110e-01  6.1377892982628690e-01  5.9073221446281809e-01  6.0315526907113315e-01  3.9565761106598057e-01  4.0938557932473352e-01  3.9210054031377956e-01  4.1961672025294744e-01  4.4071051876087503e-01  4.5452015784043864e-01  1.0243366042073072e+00  1.0269508536276308e+00  1.0148520828597725e+00  9.8850630812290197e-01  9.8897807244234992e-01  1.0000167175979300e+00  1.0709104627966535e+00  1.0787264083531922e+00  1.0705597083761413e+00  3.2154359730126543e-02  5.6002879415814118e-02  5.5278559954729578e-02  2.6205786806395293e-01  2.5872520043675756e-01  2.3688707175298165e-01  3.1534453293018017e-02  1.7749058492169886e-02  4.8102398770564062e-02  9.9145884673448564e-02  8.4339344639491970e-02  1.0947597113330691e-01  6.5547656189981629e-01  6.3945045480275475e-01  6.3410497690712986e-01  3.4364657659432979e-01  3.3197829772829596e-01  3.2578540684978630e-01  6.7455073530749077e-01  6.7871382221074084e-01  6.9208611717380220e-01  7.3209584795232874e-01  7.1431870070206094e-01  7.2813291622151510e-01  7.6291332132808443e-01  7.9326067631892272e-01  7.7822593394909478e-01  5.0971814850442299e-01  5.1817040521406765e-01  4.9025354113611913e-01  7.1225376276157071e-01  7.2484232263617876e-01  3.7459406613702467e-01  3.8867209088282229e-01  3.5493940027362597e-01  2.7431362302728945e-01  2.8381372855509518e-01  2.6412304001917392e-01  3.3615522481846122e-01  3.4873342608449265e-01  3.5635023159439333e-01  9.2476251445039903e-01  9.3974087338125056e-01  9.4158918623728338e-01  1.0060966119651349e+00  9.9353780756321119e-01  9.9904858535923569e-01  1.0598447798761419e+00  1.0663900180208128e+00  1.0552013965704790e+00  5.9439871531784605e-01  5.6932748756863871e-01  5.9567467240304239e-01  3.7157217217274119e-01  3.4907051733208255e-01  3.4884707275249988e-01  1.0598149117733873e+00  1.0566704274352332e+00  1.0650004035230423e+00  1.0151036102874131e+00  1.0156581859836120e+00  1.0294337895745578e+00  2.0435820239872185e-01  2.2312806094117960e-01  2.0274064243224241e-01  1.8324591664295417e-01  1.6073617599361503e-01  6.1412301727050578e-01  6.1983038924737743e-01  6.0086532751068600e-01  7.4505786096731186e-01  7.3717395864933266e-01  7.2908236943983473e-01  6.8937139392462909e-01  7.1315497774979242e-01  6.9769451618485379e-01  3.7078300344398912e-01  3.6648771733422791e-01  3.8805857700608859e-01  2.0927146378493999e-01  2.2967795196557839e-01  2.0372552967346286e-01  2.4308587377985760e-01  2.5794269029931388e-01  2.2768659125327292e-01  1.8860894946376566e-01  1.8930168460360888e-01  1.7064522566889800e-01  2.0260640330423629e-01  1.7724629597144323e-01  1.9779176890597946e-01  1.2108097419951588e-01  9.8960214110575137e-02  1.0658421683293251e-01  5.5740949161104314e-01  5.5698858881152769e-01  6.6000260624455553e-01  1.5520522555559196e-01  1.5244105165863459e-01  1.2763299720195601e-01  4.9603916535280901e-02  7.4317346373563326e-02  5.4120746024046595e-02  3.6329834046256404e-01  3.6742917168116301e-01  3.8642734905392051e-01  1.0681048354791213e-01  9.4909563733464375e-02  7.4694418391579878e-02  8.6132914055605114e-01  8.7186984075225127e-01  8.5298649092755419e-01  7.6727547838532395e-01  7.9448127696278836e-01  7.8644150877818575e-01  8.4076429953599263e-01  8.3899649631642370e-01  8.1947051746437483e-01  6.8109814512809186e-01  6.8797712789722565e-01  7.0226513860853756e-01  2.1589541659519967e-01  2.2463798806330709e-01  2.0359684781715953e-01  1.2814005088461641e-01  1.6524886443068112e-01  1.8026458647010313e-01  1.2164755040684277e-01  1.3302794907025697e-01  1.3818187103863724e-01  2.0995096386998202e-01  2.1466210302550334e-01  2.2787281843763887e-01  2.4467525371799134e-01  2.3663403189219534e-01  2.2263802177774614e-01  9.7753316418663205e-01  9.6515627392214509e-01  9.7740675372196639e-01  1.0205008454415365e+00  1.0245451525383558e+00  9.6159979680586682e-01  9.5000895321600398e-01  9.4783133449927137e-01  8.6194088498506582e-01  8.6401355229204202e-01  4.8595801099216673e-01  4.5830441078034229e-01  4.9569113193288156e-01  5.2169465632975143e-01  4.9669492011735172e-01  5.2882419843777606e-01  1.0864878236388595e+00  1.0880240481661978e+00  1.0837372489602299e+00  1.0944776420724458e+00  1.0916951462285234e+00  2.9078311587855160e-01  3.2182916301773751e-01  3.1867825505893732e-01  2.8592819347095588e-01  3.0088044902796246e-01  3.1222554570544925e-01  1.2956880748606928e-01  1.1943319435434059e-01  1.1231965603143203e-01  1.5782673504298897e-01  1.9220967893708296e-01  1.7090490383863072e-01  2.8990858024011973e-01  3.0944826719728169e-01  2.8943689236072706e-01  9.2857065689492801e-01  9.4330432432067390e-01  9.4225749465371389e-01  9.1378233201331005e-01  9.0706666035299532e-01  7.8676808724605074e-01  7.9762592962754419e-01  8.0465596042820475e-01  9.1750483571510366e-01  9.0641576471496721e-01  8.9540299480767060e-01  1.4060508422763213e-01  1.6889517340596305e-01  1.6420391588315988e-01  9.4032893377740207e-02  9.8680151669216454e-02  1.1700764716264241e-01  1.0104759033680561e+00  1.0054612285650888e+00  1.0180274877554467e+00  2.9375352604624139e-01  2.8153322917159534e-01  3.0716935854606930e-01  5.0705087962299356e-01  5.2218732177704941e-01  5.2608282743839374e-01  6.9499059177386313e-01  6.6607771007016481e-01  6.7074140852700059e-01  6.3702080575674880e-01  6.1519462460600360e-01  6.4452157690631651e-01  8.0092064416837794e-01  7.7562671774409064e-01  6.5562160352569621e-01  5.3343523893051936e-01  5.0803138628183531e-01  5.3510744374288122e-01  4.8544897154383493e-01  5.1018426269788741e-01  5.0599766827680248e-01  5.7849286441049808e-01  6.0270425654926019e-01  5.8076751525689418e-01  5.0232258556448039e-01  5.0804820218418667e-01  5.2298430431307419e-01  5.5197320194732247e-01  5.3395530288997251e-01  5.5528760116952136e-01  5.4163578157897596e-01  5.6313245505259113e-01  5.3506533548093593e-01  6.4998168365765241e-01  6.2363337086346771e-01  6.5414778048591715e-01  9.1493054231276938e-01  1.0131508425406619e+00  1.0009928151213499e+00  1.0189343349325888e+00  4.3163369850473454e-01  4.0485740787062990e-01  4.1684503117241312e-01  6.1170439681065947e-01  5.9728891358764014e-01  6.2953298040307726e-01  7.1797503804560803e-01  7.0376711021466609e-01  7.2612110061647639e-01  7.1791567108852405e-01  6.9056535839589195e-01  1.8105712229071466e-01  1.6647869433304879e-01  1.9446349137343572e-01  2.8028834136905700e-01  2.6994265528048306e-01  2.5337285142605637e-01  2.6087666644719783e-02  4.4979370676947433e-02  3.3170776653995765e-01  3.2926677241449426e-01  3.5698599444468104e-01  3.8982138722764970e-01  3.9892090698364058e-01  3.7698922641158761e-01  5.4279022750656036e-01  5.2401890978979104e-01  5.2233010304254002e-01  8.2854692694079890e-01  8.4686109973256840e-01  9.1874649519606832e-01  9.3302185658631576e-01  9.1420168853425932e-01  1.0529780386708916e+00  1.0393619972174089e+00  1.0432715776674570e+00  1.0472232493818880e+00  1.0576580348391156e+00  1.0457529369129863e+00  1.0943797165046900e+00  1.0870534644228504e+00  1.0915229855357900e+00  1.0992525300506926e+00  1.1023241626975109e+00  1.0978529407134667e+00  1.5053349971847355e-01  1.7030457017912545e-01  1.7334675651148163e-01  2.5374990402700859e-01  4.7007908097831080e-01  4.4304006959923781e-01  4.5583090486426336e-01  5.2956411602229503e-01  5.5895440160748022e-01  5.4275693483845333e-01  1.1466182497253195e-01  1.0949499392786252e-01  9.1592904324884983e-02  2.8046695347379169e-01  2.9339964592534884e-01  3.0263890385834169e-01  2.1083520037036682e-01  2.0807715609474706e-01  3.0947537328136143e-01  2.9259469353727219e-01  2.8969723866344649e-01  2.0109642112815862e-01  2.3113365248902074e-01  2.2450831620102252e-01  1.7685437245127822e-01  1.9798445408425352e-01  2.0992043073241431e-01  2.2774118424332260e-01  2.4182341806240246e-01  7.6970117297445151e-01  8.7562816386075426e-01  8.5846515450127969e-01  8.6529097810903743e-01  1.0855591056424865e+00  1.0422707235817241e+00  1.0381617857582810e+00  1.0210641536750809e+00  1.0245520062549753e+00  1.0346789421074931e+00  1.0203144421965102e+00  1.0299516274371647e+00  1.0247685980820116e+00  4.7234295512616592e-01  4.5595813263456147e-01  4.5322181122204791e-01  4.3369524880149929e-01  4.5174332758034808e-01  8.9671532122081354e-01  8.8251165683691435e-01  8.7492725823691331e-01  8.1288992663866788e-01  8.0283430155214019e-01  8.2514680672988316e-01  1.0979056096470770e+00  1.0973648166249559e+00  1.1027127045580885e+00  2.8019249171044702e-01  2.7131329764927931e-01  2.9720594693644159e-01  2.9403160246837645e-01  2.6656946175500318e-01  1.5142566028349841e-01  1.2940477439763462e-01  1.4878590204744038e-01  7.3706555015853747e-01  7.2899196072579409e-01  7.1296433584121066e-01  7.7124449368343495e-01  7.5738939244667536e-01  6.3990345062048190e-02  5.8286920285057664e-02  7.9457368382229360e-02  9.5552977895998481e-02  7.4945106458639874e-02  8.4103334959622980e-02  1.5953347211234345e-01  1.6856864832834276e-01  1.4057974201109708e-01  4.4502170603499114e-01  3.9517056132171002e-01  4.2526331931944078e-01  4.0928092315919196e-01  9.8435534377716893e-01  9.6535973231377303e-01  9.7693405608512207e-01  8.8218511006439504e-01  2.8449512652830927e-01  2.8790080386500266e-01  3.4748420324513035e-01  3.5721560541922198e-01  8.0392247111516033e-02  6.0838752703352393e-02  5.9256306634562647e-02  9.1054134770783823e-01  9.2442329841377591e-01  9.0702471839252041e-01  9.2736078629557350e-01  9.4299699789688651e-01  9.2204096722932749e-01  5.4337350720522992e-01  5.5895998815859171e-01  5.2746341827141541e-01  5.0889174833195172e-01  4.8180586617426296e-01  4.9043215216467190e-01  2.1064565482616932e-01  1.8971024237456907e-01  2.0028757434169220e-01  2.1440821521682182e-01  2.4298918195978095e-01  2.3338856324305260e-01  1.1906524353023559e-01  1.3075668556151271e-01  1.4362757053645736e-01  1.6347988334054830e-01  1.6254249682515765e-01  1.8408205481212861e-01  2.0896920081218398e-01  1.9396303377014187e-01  3.7274729268508039e-01  3.7127455464115627e-01  5.3602383175932344e-01  5.4960010975404461e-01  5.7603898755237515e-01  5.5743516416976768e-01  5.1931455193777365e-01  4.8665265101372579e-01  5.0550382140375794e-01  6.7055334058198934e-01  6.9082334969217962e-01  6.6679847265605952e-01  7.9557234623148254e-01  7.9017188552351680e-01  8.1037426033552518e-01  1.9891552564415488e-01  1.9077706822372065e-01  9.5747832964531959e-02  8.6616553513020708e-02  7.9095674743599353e-02  9.5371169123281446e-02  8.8324112377478226e-02  1.1516919179623457e-01  1.1246382339737084e-01  1.0929872965784335e+00  1.0929889534417905e+00  9.7862370583306146e-01  9.8973321384693647e-01  9.9090153974422879e-01  9.3190166308469635e-01  9.1626194800556593e-01  9.4097306441296036e-01  8.6414049470084731e-01  8.7713219097882023e-01  8.5858202626785407e-01  8.7519268561899000e-01  8.7288042071928373e-01  8.6045696187523202e-01  3.4764697527013805e-01  3.2640272357826977e-01  3.2449376244026140e-01  3.1428382847119368e-01  2.8481984160219498e-01  6.6323560736068476e-01  6.8436658773475878e-01  6.8031969651855095e-01  6.6297026819023819e-01  6.5801805827829507e-01  8.5993776302635627e-01  8.4278333100113800e-01  8.6060959415440930e-01  9.0060518437233961e-01  9.1367043295848716e-01  9.1511757212870681e-01  3.1278228284851811e-01  3.1778088391131210e-01  3.2647458350012276e-01  3.3204241582416633e-01  2.9508704161014593e-01  1.1011391862336616e-01  1.0436741274119048e-01  2.3025146168540861e-01  2.4924920107793799e-01  2.1353682145540304e-01  3.5861627854646766e-01  3.8220253058210013e-01  3.6095349666052917e-01  2.9448030527761870e-01  2.8076456716235876e-01  2.7507982462548813e-01  7.0895129856605210e-01  7.3713126967759623e-01  7.3767124562989284e-01  7.2124489446331974e-01  7.2905258467556677e-01  1.0359066922896425e+00  1.0363018969402025e+00  1.0253448262155669e+00  1.0234934951910588e+00  1.0098869111612445e+00  1.0125559381189596e-01  8.4798421685508038e-02  1.0288102574296976e-01  1.0940156819649076e-01  8.8019746379869715e-02  2.9706285877514771e-01  3.1210062420806772e-01  2.9213726689602038e-01  4.0834001230343042e-01  4.1138760158665283e-01  4.3510932725804541e-01  6.6442089185389241e-01  6.4888683782061374e-01  4.8101982062224763e-01  4.6452631748321727e-01  4.8136744293490341e-01  3.3884233018126775e-01  3.5802111571372353e-01  3.7207201244398719e-01  3.9983329420723301e-01  4.2074227014286641e-01  4.1902714242714001e-01  3.9752782106493453e-02  2.6015254564792076e-02  4.3723590521494882e-02  1.0332904819560076e+00  1.0740584624789358e+00  1.0801595007284248e+00  1.0740978196974902e+00  6.9149755289563325e-02  9.2799360045213775e-02  9.2511916545435710e-02  8.7926760303156026e-01  8.9653971985490777e-01  6.5568115973360852e-01  6.7885137769894499e-01  6.6108080262752755e-01  7.5326179206946753e-01  7.5308055212893299e-01  7.3894572945065728e-01  4.9868445653025845e-01  4.9550510577000967e-01  5.2912499003507196e-01  4.7556561795078645e-01  4.5427156751485642e-01  4.4462709536565115e-01  4.7223311590457173e-01  4.4932558384432086e-01  4.5412590001994146e-01  5.6228686854378696e-01  5.4120352829780738e-01  5.5626808249111115e-01  5.6137048122577571e-01  5.6777604331300957e-01  7.0522357752356346e-01  6.869948366