<?xml version="1.0"?>
<VTKFile type="UnstructuredGrid"  version="0.1"  >
<UnstructuredGrid>
<Piece  NumberOfPoints="1130" NumberOfCells="2134">
<Points>
<DataArray  type="Float64"  NumberOfComponents="3"  format="ascii">0.2924965119749844 0.5806454640576162 0  0.2931357425666441 0.6158095738938106 0  0.2722845889387188 0.5986007514407707 0  0.06245154218797691 0.7943760977968389 0  0.05544056292684415 0.8360220202702611 0  0.02724914271240671 0.7995232918838924 0  0.1335850646589621 0.7291917770211511 0  0.09257890860895016 0.7227107754768907 0  0.1207009360036598 0.6914172198262521 0  -0.1127572484929876 0.6217075882064447 0  -0.09059232536756107 0.6461457043336694 0  -0.08244382822329682 0.6193610233350183 0  -0.1373197942797624 0.4432044140746515 0  -0.1708498639144158 0.4258289329533242 0  -0.1683718478273803 0.4550768101836 0  -0.2097608088645187 0.2706029166526365 0  -0.2553472029916841 0.2715809926304027 0  -0.2391685209522224 0.2307322500123088 0  -0.2612214313441482 0.4860827085271667 0  -0.2999268493360679 0.4942668376827834 0  -0.2761784895078877 0.5087930656610014 0  -0.6336799748740927 0.5412138273049375 0  -0.6367242063828276 0.4943077948128051 0  -0.6623691907668592 0.5109580860210953 0  -0.8189328877697528 0.4225545775266913 0  -0.7732510673161435 0.420047019447516 0  -0.7972043328982701 0.4010362957246634 0  0.09400378958013947 0.2055695036858353 0  0.1290725919584871 0.2207698374846717 0  0.1219808629418566 0.1890773044854493 0  -0.4309945018733153 0.5062643786080123 0  -0.4382089257601645 0.5497266439837095 0  -0.4119159386366162 0.5339223899750409 0  -0.6227781113910986 0.4494196041151011 0  -0.6567942943576646 0.4640171858672734 0  -0.6481157979026415 0.4373082602627743 0  -0.4712405913227501 0.1677045787871355 0  -0.5101607540755746 0.1422745461243285 0  -0.4855314936343032 0.1275817475248843 0  0.2162525383925422 0.08615652924307352 0  0.2246786184519418 0.05722134459703598 0  0.1858331413839794 0.06712133478128747 0  -0.395297655555004 0.5597085933417444 0  -0.393845571583094 0.5930343773993745 0  -0.3703409314215836 0.5744126151601694 0  -0.1732844607114084 0.7831016787925337 0  -0.2042612800303741 0.7831655859422791 0  -0.1887231468431922 0.8072354228488953 0  -0.2401164734357646 0.7642938074902216 0  -0.2007050285273371 0.7523935126534872 0  -0.2268594363809904 0.7369868775014541 0  -0.1696450233376555 0.7253721306646218 0  -0.2085138894959716 0.7108694539094691 0  -0.4304447217574816 0.7500053130336214 0  -0.4315890123179937 0.7095731294438389 0  -0.4566159372858562 0.7305137127660739 0  0.2068741599965308 0.6805917788483005 0  0.2050805379439151 0.7234446339117643 0  0.2218709634298657 0.7011057471390761 0  0.2162993597616463 -0.05864296304509958 0  0.1750354584180112 -0.06241539112817548 0  0.193720732252597 -0.0392358669981461 0  -0.0230893327402 0.1929077709269967 0  0.004761282153553419 0.1841053551365959 0  -0.0294157900699326 0.1671086648702482 0  0.1565461142119031 0.6738661189577495 0  0.1462519036200293 0.703786842447927 0  0.1808354785713632 0.6837740099682186 0  0.003584375230144248 0.8973914042388084 0  0.004168520773651397 0.9265977742636927 0  -0.02260959360525044 0.8990907582775318 0  -0.5553672154460828 0.1314190645461342 0  -0.5235028484586995 0.1112039343107129 0  0.1603091172319885 0.1987437044449037 0  0.1587220491624921 0.2266983155339805 0  0.1814480564065501 0.2139661830238536 0  -0.1528819986293607 0.1263255869844637 0  -0.1492482924853433 0.1580573615581254 0  -0.121785890413324 0.1264951045251249 0  0.06840700246376145 0.1813414697793323 0  0.05901930246285114 0.213188864059535 0  -0.1752833856350064 0.2330884014058902 0  -0.1463494540489943 0.2498979671367919 0  -0.1597540380916604 0.2128762917837419 0  -0.2666080625010207 0.8166860089768937 0  -0.2708315979539392 0.7816567174515252 0  -0.3125666401907646 0.8078345074970555 0  -0.404120413395211 0.790596968601049 0  -0.3736980272227576 0.8094398659945521 0  -0.3782485212331815 0.783550436492126 0  -0.6302032721917927 0.1842725605598824 0  -0.6662816078013655 0.1849757094845715 0  -0.6278359119408464 0.1559995968664962 0  0.04697055465782802 0.07164191122244783 0  0.03568486653295815 0.02782254432188264 0  0.07147362760462897 0.03813006809902156 0  0.07629170137027992 0.001199503106725944 0  -0.08254551195616064 0.2442760807068146 0  -0.1256264531238477 0.2318577153827438 0  -0.1100359059370774 0.2587079641700211 0  -0.2057340115688616 0.336734776516796 0  -0.1583351405483 0.3413766438249081 0  -0.1746963906066072 0.2991947239182672 0  0.2069802702871247 0.2191319025157533 0  0.2277242868701167 0.1958518940723663 0  0.2327020808785168 0.2211695803373901 0  0.08377029897187802 0.3968728637950909 0  0.09430952409275566 0.3649796683197574 0  0.1096177565212272 0.4086602604886229 0  0.1993614565197579 0.6303751881642145 0  0.2183947193733605 0.602039791860232 0  0.2244999519515443 0.6267009039980487 0  0.2603645391142563 0.6285756014906578 0  0.09969329332901172 0.7636117992424346 0  0.1302396754667923 0.7597935550942527 0  0.3054091438189218 0.7866902927858057 0  0.3357122182608844 0.7742694490625159 0  0.3340932520791566 0.8018765332110196 0  -0.3419627731396465 0.7347283846920364 0  -0.3520950571293062 0.7809111428238701 0  -0.3692699615099612 0.7343393389683085 0  -0.5840098151137766 0.2990048577514015 0  -0.6080756186142645 0.3165493008588801 0  -0.5823578507234605 0.3265486810853542 0  -0.7051763504253612 0.250234969313039 0  -0.7068111699962591 0.2244295694172429 0  -0.7307168990284388 0.2554584211146595 0  -0.4836131513794496 0.6232288808042636 0  -0.4928484342320275 0.5960519446409566 0  -0.5117044153203884 0.6291244044274967 0  -0.4409287066533773 0.6702178123895151 0  -0.4738508613963038 0.6572424830600011 0  -0.4501566366006438 0.6453775654719015 0  -0.3429952027518596 0.5223588630033167 0  -0.3206329923626178 0.5503883121993246 0  -0.3685624877363587 0.5418514467512064 0  -0.3893699539648601 0.6237039937970631 0  -0.3422033714709892 0.6265868844716567 0  -0.3644188643635339 0.6027670761648919 0  -0.6575050454237221 0.2288298014079799 0  -0.6447641122924658 0.2516770218638512 0  -0.6798884378325298 0.2427667040117376 0  0.2579067442312717 0.4688983724209494 0  0.2888513267043814 0.4378317642069166 0  0.2515399520834085 0.4316117661101545 0  0.2722069355506832 0.8284688529037881 0  0.2642325312678823 0.8678131532115284 0  0.2341417510346148 0.8335977078735048 0  -0.609195381974423 0.1346104521165029 0  -0.581512774190834 0.1459772283855625 0  -0.606311706240823 0.1720374621998764 0  -0.1137242964947925 0.7342494510189826 0  -0.1085533329295061 0.7711569775053645 0  -0.08842803878944591 0.7495212997310273 0  -0.09035277733789798 0.4919220888235711 0  -0.1387502465387686 0.4915819350525998 0  -0.1147755671194965 0.5236308404416747 0  -0.08799438577573623 0.3012994251470535 0  -0.08054411621706016 0.273239330540436 0  -0.06068658392917529 0.3120024979569823 0  -2.220446049250313e-16 0 0  0.03833101908736652 -0.01236714587332863 0  0.03332211297248573 0.1779883120077971 0  0.0553878700818049 0.1568128372514456 0  0.03879512812050209 0.1013532927181565 0  0.01956592186948998 0.06947958240077355 0  -0.3110288607107251 0.08135098352660518 0  -0.344921080983376 0.08229130413897219 0  -0.328161300472874 0.05287969798319995 0  -0.08860505921103043 0.5920506521433744 0  -0.1159536089414161 0.590966322597226 0  -0.1021964897951705 0.6788144063269812 0  -0.136261090104428 0.700646753224388 0  -0.1228430025016362 0.6531026549154566 0  0.1415956346790651 0.6023153900601184 0  0.1455023681906896 0.561880690090387 0  0.173814985803951 0.5850222891851874 0  -0.7039359164953137 0.1054244296900993 0  -0.7241549932545398 0.08547378493790607 0  -0.7240317325936491 0.1290401816176439 0  -0.7146836516968359 0.3927695373773623 0  -0.7171931948150422 0.4336007787289713 0  -0.7460250674529035 0.4301448157942048 0  -0.8336681057691238 0.345316635927459 0  -0.8219806880639507 0.3831114868492926 0  -0.8020922577552831 0.3633132148152522 0  -0.5618738577248394 0.6403651441164777 0  -0.5473882199946626 0.6849348980099506 0  -0.538289355892541 0.6573388026093229 0  -0.4824797505496254 0.3838810792864338 0  -0.5230731684421793 0.3642691414098798 0  -0.5137211790366101 0.3967288418064787 0  -0.09386743165719327 0.8868230745198202 0  -0.1334231263863611 0.8942731301668522 0  -0.1092845443900445 0.9137012029455377 0  -0.04523581318749946 0.8244439404340452 0  -0.0769396102945519 0.7908921470434424 0  -0.09343945562699482 0.8132315912754917 0  0.0455101775939576 -0.1178143478783519 0  0.07525030372245567 -0.08800061275601394 0  0.04261815316074052 -0.08518924674757319 0  0.1424349288786705 -0.03683910833544325 0  0.1406428911848698 -0.004598908502305238 0  0.1639118323293636 -0.01947543299796284 0  0.1859045193885197 -0.1024004418516471 0  0.19058579448583 -0.1427680390589207 0  0.216883382856332 -0.1337619999027692 0  -0.2373028979847076 0.5473261424768866 0  -0.1932653732436898 0.5665479687088435 0  -0.2062682446319116 0.5362814988625322 0  -0.2126522817199431 0.3845511360064228 0  -0.1866730065200072 0.3639012639806355 0  -0.4174180203574351 0.2086894809925613 0  -0.4048848604657676 0.1820574049833631 0  -0.4464806129667586 0.1834083348043779 0  -0.4568841982408385 0.1262359142486632 0  -0.4313452580001016 0.1582968730533858 0  0.07231769945658416 0.5196157514494713 0  0.03312463406788048 0.5008840041940618 0  0.06513249352082014 0.4842812410161731 0  -0.0004027730160685861 0.7771386075583826 0  -0.03905074592193825 0.7819032022368267 0  -0.02332525375120641 0.8059095547793576 0  -0.2649860329145938 0.1824261056420857 0  -0.3041191825682435 0.1773695031720618 0  -0.2803378790137869 0.1428742985583878 0  -0.2687508696165652 0.1158982906339185 0  -0.2514827659916298 0.1482915158136655 0  -0.322899042696953 0.1999682459755028 0  -0.3484887776281561 0.1655499381999704 0  -0.3515501295523116 0.2070651371825604 0  -0.3903979979922381 0.1564355708354559 0  -0.9163492829346521 0.2448659195690242 0  -0.9192152205576599 0.2847796305242293 0  
[...]
<PointData  Scalars="f_2282-2"> 
<DataArray  type="Float64"  Name="f_2282-2"  format="ascii">2.0030971370312842e-01  1.8080118574181522e-01  1.9567626366177587e-01  1.1130611542119984e-01  8.7131242689068564e-02  1.0919870734941860e-01  1.4445588985910526e-01  1.5230669714955394e-01  1.6864074788777100e-01  2.1162484791230213e-01  1.9884783499112152e-01  2.1584806229115330e-01  3.1153019690648748e-01  3.1446394376674081e-01  2.9930710151740048e-01  3.7462030301481136e-01  3.6002858771576218e-01  3.7916483336230927e-01  2.6022181047450765e-01  2.4448258071117562e-01  2.4397958954114285e-01  8.9767282264399992e-02  1.0587715606561884e-01  8.7911260189992124e-02  4.0237379883115390e-02  6.2994078981088913e-02  5.6369740389901113e-02  4.2140458651464924e-01  4.1096378015439444e-01  4.2173071177000826e-01  1.9128917220188832e-01  1.6786582937384417e-01  1.8542928796090399e-01  1.2825246849881308e-01  1.0684251343393468e-01  1.2027531372392224e-01  2.9080338679820611e-01  2.7369009351958923e-01  2.8965085090918968e-01  4.1916776959595531e-01  4.1960445822478126e-01  4.3017110809265463e-01  1.7882050708269273e-01  1.6237978179295523e-01  1.7972756197188372e-01  1.0800169820475201e-01  1.0387067917028624e-01  9.2312175210316150e-02  1.0879561691999250e-01  1.2182494527644097e-01  1.2663855124363302e-01  1.4237762579180605e-01  1.4485256835829619e-01  7.1754321006923694e-02  9.1384389614937986e-02  7.3568602490893850e-02  1.6271874626200286e-01  1.3794645699684049e-01  1.4826972189121754e-01  4.2203562671138312e-01  4.3408522544115224e-01  4.3019149452236116e-01  4.3134164458226121e-01  4.3448215289746145e-01  4.3793031144308386e-01  1.7470176962830744e-01  1.5815202565659184e-01  1.6523697415953542e-01  5.3454416523589815e-02  3.7535987238286557e-02  5.2088205063482836e-02  2.4886376645914568e-01  2.7019950745908738e-01  4.1124708611585054e-01  4.0264052551572166e-01  4.0114646339049648e-01  4.3027017804442441e-01  4.2430661211695109e-01  4.3648355818762968e-01  4.3171953904026039e-01  4.2301594360736461e-01  3.9692806434100991e-01  3.9752231669237820e-01  4.0697857443885260e-01  7.5016794730386083e-02  9.3323642281181882e-02  7.0943807677571358e-02  5.8761565784596556e-02  5.6775308535749150e-02  6.8625853006931109e-02  1.9655307157576890e-01  1.7475492673222390e-01  2.0234500912880179e-01  4.5479796193831662e-01  4.5906730791892525e-01  4.5522418935448361e-01  4.5613289591633177e-01  4.1006512969010300e-01  4.0819886616742607e-01  4.0095860252000026e-01  3.4890664307136565e-01  3.5823864939605110e-01  3.7271698548936566e-01  3.9271623218846802e-01  3.9307608857311910e-01  3.8411965691214683e-01  3.4300875159199745e-01  3.5791743760531930e-01  3.3375644481807137e-01  1.9350845570979949e-01  2.0631853832992250e-01  1.9074401447485706e-01  1.8171266737015707e-01  1.2714768506938121e-01  1.2680256590652225e-01  8.3606831115604976e-02  8.3769601278742972e-02  6.9590948468501362e-02  1.0328761744782267e-01  7.6368402879134253e-02  9.6377021116112446e-02  1.9668565236183400e-01  1.7857211495985079e-01  1.8949053080917388e-01  1.4041522410233617e-01  1.4437928906877329e-01  1.2465534036381624e-01  1.1594337031835171e-01  1.2504116960719333e-01  1.0278068582855475e-01  1.0804197784039828e-01  1.0326064984791283e-01  1.1716677931908148e-01  2.1577816570155176e-01  2.0854528940720718e-01  1.9720922901419888e-01  1.4825131007735048e-01  1.6116666973988447e-01  1.6706696228286066e-01  1.7224237961831684e-01  1.7441615872996555e-01  1.5602454265661783e-01  2.7027800441754490e-01  2.7663540702585654e-01  2.9121402899104248e-01  6.7585929941885170e-02  4.8054262840444131e-02  7.1085952609215186e-02  2.1665427087694525e-01  2.3147079448162947e-01  2.1225847318310267e-01  1.4357225031148482e-01  1.2198227152793753e-01  1.3625681371184806e-01  2.9083192390081780e-01  2.8474742929722879e-01  2.6972270910554913e-01  3.8736218320655097e-01  3.9970680175360612e-01  3.8548423169981416e-01  4.6054853330958229e-01  4.5920357852334914e-01  4.3507596152491590e-01  4.3885705729037677e-01  4.5113234140496372e-01  4.5637525919725158e-01  3.8410040834529990e-01  3.6865757974169250e-01  3.7900254202447020e-01  2.3192893658287378e-01  2.2959335816793211e-01  1.7804147165729536e-01  1.6126293582338619e-01  1.9143907546625014e-01  2.1960904249794497e-01  2.4304099761532788e-01  2.2474960372906350e-01  1.6264409603956401e-01  1.5169502622389025e-01  1.4816170372995879e-01  1.0005928862956248e-01  8.6981698033437971e-02  7.3822180686514804e-02  5.0784185552347844e-02  4.7954248264821128e-02  6.2925464786158208e-02  7.9112172371725145e-02  6.4995716390835484e-02  8.0392801079360726e-02  2.2098122759710942e-01  2.0828750363995824e-01  2.0092208401330053e-01  5.6715917239664036e-02  4.9650386703295399e-02  4.0785295536921035e-02  9.4452789079708624e-02  1.1250902306197508e-01  9.8400775466886900e-02  4.4815498968273865e-01  4.4997374389350647e-01  4.5337673637102482e-01  4.4367297164668623e-01  4.4490201542286173e-01  4.3926341182174639e-01  4.2593135960842682e-01  4.1757043235296654e-01  4.1123628434900006e-01  2.3309211738951152e-01  2.3204528087411139e-01  2.4659491318360091e-01  3.2507983427347648e-01  3.4130548678716055e-01  3.0999453660480802e-01  3.2257393842659859e-01  3.0080116930591277e-01  3.0594999299497105e-01  3.1405737820424073e-01  2.7653448830504312e-01  2.8979062485107365e-01  2.9746642515093091e-01  1.2310356936247112e-01  1.1937408600170905e-01  1.0549781138688021e-01  3.8400851778526340e-01  3.7002212453034777e-01  3.8691916726412301e-01  3.9650673401551972e-01  3.9676694126333761e-01  3.5634752673585923e-01  3.5329553802391211e-01  3.4200638311401282e-01  3.3522463675199393e-01  2.5701453774012336e-02  1.8405512795495491e-02  3.2029626597756947e-02  2.5093561643209739e-01  2.3963073886784259e-01  2.2588365967176902e-01  1.9188029817367180e-01  1.7402369856531807e-01  2.8161327842403067e-02  3.3129363988116431e-02  4.5054079463348287e-02  1.6277909886801770e-01  1.8589910036737878e-01  1.7338047792024000e-01  1.2002472051063122e-01  1.3868479966594541e-01  1.1576687441235398e-01  5.4923181510829963e-02  3.5534239146041480e-02  3.8749818007055188e-02  4.0046918261769912e-02  5.6186534490664825e-02  4.0158981678238011e-02  2.7282394725621406e-01  2.6987067488684630e-01  2.8993838022235913e-01  3.6581871819296552e-01  2.3757768057734474e-01  2.3273798715617638e-01  2.1969923030373739e-01  2.7857403337111364e-01  3.0536090067020605e-01  2.7778414012068753e-01  8.2866677928332605e-02  7.5268797445097402e-02  1.2727876909366345e-01  1.4415623241227232e-01  6.9188345527561812e-02  5.6988842636853811e-02  7.1974965724649259e-02  3.0013218611314846e-01  3.1014757467392606e-01  3.1651649965121958e-01  1.7792096050144490e-01  1.8356038937999666e-01  1.6716085412205162e-01  4.4225925370363250e-01  4.5205148722280047e-01  4.4767471030786399e-01  8.1213420364443956e-02  9.1005879359466177e-02  9.5968264384007643e-02  0.0000000000000000e+00  0.0000000000000000e+00  3.7518718578805849e-01  3.8788174222160204e-01  3.8389767969515504e-01  4.4263449873248428e-01  3.9506517454256601e-01  3.8426284015735301e-01  4.0168414932167046e-01  3.3446322560684599e-01  3.3400770379599320e-01  3.4791099438718254e-01  1.9623221386951631e-01  2.1032764873404949e-01  1.8460495565524726e-01  2.1387638968389605e-01  1.5478496856103968e-01  1.3640269373206848e-01  1.4699764607595781e-01  1.9102453520253007e-01  1.6551835057869191e-01  1.8142239712357830e-01  2.5042302299057051e-01  2.3521917585781957e-01  2.5188573389409907e-01  0.0000000000000000e+00  1.1370302133183628e-02  1.2569033831813743e-02  2.7251615943959598e-02  1.7436906413246005e-02  3.3561659240412919e-02  1.8781480409116494e-01  1.7099747578239882e-01  1.5859822083696265e-01  9.2912700000644943e-02  7.9939171395570829e-02  1.1445570398609736e-01  1.1023688080796332e-01  3.9816619970682504e-01  3.8963621128081749e-01  3.6237382069306973e-01  3.4848018763425936e-01  3.5451540828691530e-01  3.6075396916096697e-01  2.2726348330573165e-01  2.0889736036521453e-01  2.1824156865066646e-01  5.2476143551172985e-02  5.2888073581095200e-02  3.5577442130555026e-02  5.4943828093407643e-02  4.5616485955845559e-01  4.5697510944849018e-01  4.5935436022340059e-01  4.5937020729893807e-01  1.6617767857835428e-01  1.8096755180946653e-01  1.7447974610173120e-01  3.1372268875032122e-01  2.9917226301229483e-01  3.2364084453277586e-01  3.8282529371387292e-01  3.9797586828565584e-01  3.3932931695395574e-01  3.3878154616142830e-01  3.5671366935450427e-01  1.3291852825289358e-01  8.0714359517914003e-02  9.9912088533679999e-02  1.1418113521059393e-01  1.1424849233014513e-01  7.3372239120918822e-02  2.2868803940394947e-01  2.3275392166362985e-01  2.1317614268418708e-01  1.3777057930250361e-01  1.5542822553464619e-01  1.4270426880432613e-01  1.3390201196963378e-01  1.3556087998528901e-01  3.9220162879177156e-01  4.3933773452826225e-01  4.4059782566153027e-01  4.4476098898139294e-01  1.4475847098659486e-01  1.6234466652215221e-01  1.7015054288872195e-01  1.0737187189619772e-01  1.3282194310010065e-01  1.1977040861190097e-01  2.1738886931245118e-02  1.1785991306313293e-02  4.4260700880501552e-01  4.5088657836229934e-01  4.5163648360396080e-01  4.1641068404533449e-01  4.3093854340956583e-01  3.7473420290385767e-01  3.6450908319509667e-01  3.9799520754289247e-01  4.1215733958406475e-01  4.0257243298516637e-01  4.0625727605774509e-01  4.1241915771564513e-01  4.2211001122276887e-01  1.7778114335254697e-01  1.7790169511498424e-01  1.5745348314285784e-01  4.4791857366469517e-01  4.4554346835987169e-01  4.5166682459735003e-01  1.9548220637956790e-01  1.9680920997345161e-01  1.7844277876565570e-01  3.8612184024211332e-01  3.7994311227815197e-01  2.3109441417233875e-01  2.1146100835449366e-01  2.2803914505775030e-01  2.4729172080375486e-01  2.8793132519181525e-01  2.9559927773387440e-01  2.8393982915611965e-01  3.0046868068523741e-01  2.9441702144240045e-01  2.8261541491971576e-01  2.7099596315358704e-01  2.8764400062134077e-01  3.0874107138152901e-01  2.8775744217020016e-01  2.5379049080242505e-01  2.5289928434057601e-01  3.0447075068359275e-01  3.2822957155307964e-01  2.2723468786137160e-01  2.2429816177077466e-01  2.5793594144283871e-01  2.7342231144531964e-01  9.6394610161570179e-02  1.1754604677047331e-01  1.1057469216728684e-01  1.7574581988326055e-01  4.8728741463318036e-02  5.2189614463996711e-02  3.7770682819059723e-02  4.3296147153626542e-02  6.2910546436521969e-02  4.8597345728665746e-02  3.7657223230897496e-01  1.0015033679872211e-01  1.9375536836806920e-01  4.4569907772798040e-01  4.3810469879013653e-01  4.5316458255211706e-01  2.2765919128400516e-01  2.1028719964480444e-01  2.3086249462802463e-01  2.4886866582241440e-01  3.5235736789494744e-02  4.3619451384138842e-02  5.5056653509411781e-02  3.7675678569958182e-01  3.6925014089302521e-01  3.2275225525441714e-01  3.2742387469976753e-01  2.6094402683734874e-01  1.5155653633526647e-01  1.4197582592409458e-01  1.6765788768613427e-01  2.0624537311126897e-02  1.0050560779494181e-02  3.0473289157975075e-02  9.1289493947972422e-02  0.0000000000000000e+00  1.3932359718135053e-02  0.0000000000000000e+00  7.5640857103755357e-02  6.2351871186280959e-02  6.0531151623326188e-02  3.3598254739181260e-01  3.2552497416137421e-01  3.5253252156652393e-01  3.3476539261563254e-01  3.5529740906532259e-01  2.3489544547712415e-01  2.5691080344583150e-01  2.4793506988869740e-01  2.6901057127601558e-01  3.3867100212502810e-01  3.5528266514306683e-01  3.4110732220149759e-01  3.2871383953795696e-01  3.1636785527624967e-01  3.3106708102492699e-01  1.1053961963046706e-01  1.2560537572903968e-01  1.1031888830646219e-01  3.8963188153407262e-02  3.2953026779565256e-02  2.3669071400789728e-02  0.0000000000000000e+00  0.0000000000000000e+00  2.6797698538098134e-02  1.5037376051024046e-02  6.6571955892562998e-02  6.8176651088231441e-02  3.8160438648767579e-02  3.5642432893264839e-02  1.7477941800857301e-02  0.0000000000000000e+00  0.0000000000000000e+00  1.8068230507519162e-01  1.8153670879380721e-01  1.6521135102798082e-01  4.4211323573553507e-01  4.4819165099652875e-01  4.3144632773489866e-01  4.3814177778589869e-01  4.3092783824191838e-01  2.6576999176752925e-01  2.7994936300949630e-01  2.8339330747499158e-01  3.2354927053364785e-01  3.3464807611247716e-01  1.5279713169026207e-01  1.6778617198295739e-01  1.0863161157409706e-01  1.0590236141968931e-01  8.9144743491665651e-02  2.2259763495084031e-01  2.0760297905320074e-01  2.4627938363050814e-01  3.4130204478835990e-01  3.5280180215239676e-01  3.3091102876967998e-01  1.9388032056324409e-01  1.6448795151790505e-01  1.3888687442381856e-01  1.6002598827097664e-01  1.8130437414181563e-01  1.9782344883722427e-01  1.8250985077126056e-01  9.6083769499281560e-02  7.9120494500696387e-02  6.8923268990539882e-02  4.5830327654310216e-01  4.5940223151945520e-01  4.5671351258606807e-01  4.5611543184906000e-01  4.5787216853617102e-01  7.1097761859387931e-02  5.3975756134430002e-02  4.5710140438486663e-01  4.5464237732628671e-01  4.4100534132932240e-01  4.3545810736888751e-01  4.3397048102823244e-01  7.5157866972365039e-02  9.6024761436104084e-02  1.2641681324546714e-01  1.0794746562654581e-01  1.2736835470626806e-01  2.1960997580632923e-02  2.0346877986801092e-02  9.9501967497951371e-03  3.1770221988540409e-01  2.9727935365649272e-01  2.8491720977870566e-01  2.8101128782222867e-01  6.8914591972466202e-02  5.7403734129521843e-02  1.8599477951195483e-02  3.8896012420186483e-02  2.3733197339642448e-01  2.1106665580260009e-01  1.9078315659894213e-01  4.6801583603218545e-02  6.5286516847800374e-02  6.4006348227919119e-02  5.1541377589129390e-02  4.3546726209864293e-02  7.7215201535780931e-02  9.3521396935845255e-02  1.0383157113244292e-01  2.8171808724679254e-02  1.7207913973963818e-02  1.4702164019830303e-02  3.7284488408959968e-02  4.5130218742563899e-01  5.1934650703879238e-02  3.7909475634826044e-02  3.6759715208179999e-02  6.9849960857464491e-02  6.4130450698517902e-02  3.8591823395892311e-01  2.8765830987061397e-01  2.7106687440363336e-01  2.7221145497474586e-01  2.4931473131031945e-01  2.7935067876895342e-01  3.0316161174111173e-01  3.2147769619101718e-01  2.4534485930736004e-02  2.2185121852699843e-02  3.9069312471172774e-01  4.0427736177903700e-01  3.9277991443781279e-01  2.4820204235882551e-01  2.9111299150247255e-01  2.7374705792171944e-01  1.2734918364702291e-01  4.3693812059305731e-01  3.4764673866521822e-01  3.6861946635652293e-01  4.1119374024609112e-01  4.2692278136542783e-01  4.1950668592778129e-01  4.1239814688825543e-01  1.6070451967544686e-01  1.3549145769706022e-01  1.4694167944837819e-01  1.5823522846725818e-01  2.3140479965162866e-01  2.1394220840179518e-01  2.6029678163539494e-01  2.7200597417518318e-01  1.6033895010987706e-01  2.1614247266338113e-01  2.7815641979513844e-01  2.9372639281716051e-01  2.5747480250445048e-01  2.5165289751290187e-01  4.2310923534833966e-01  4.3054297157081134e-01  4.2805294760454071e-01  4.2991365212792487e-01  9.4168045165760911e-02  1.2902441708179033e-01  1.3382267466247380e-01  1.1166199372754027e-01  1.4951228720234994e-02  1.0630219662305435e-01  8.7012077766907933e-02  7.3396825254420567e-02  8.2026045007680307e-02  4.3873054129195438e-01  2.6468075474639290e-02  3.5176062161401143e-02  1.2643184706486817e-02  2.9317982278320226e-01  2.7279784151970182e-01  2.9255206680341866e-01  3.0291602585143673e-01  3.0879586226168615e-01  4.5897073643816982e-01  4.5416816846835351e-01  4.2024806807503895e-01  4.1420634479852403e-01  4.2369237837240148e-01  4.3137322663034455e-01  4.1933619400476690e-01  4.2167316359980617e-01  2.6164990743779276e-01  2.6351195473710071e-01  2.2919159695600955e-01  1.4828885104344294e-01  1.4090681750384296e-01  1.5427266568725506e-01  2.4570882050033352e-01  2.3946891727857053e-01  2.5707218285143013e-01  2.5454738139701821e-01  2.3728237635136351e-01  4.2980280904508950e-01  3.9022885169305438e-01  4.0598771519441862e-01  3.9588499118578091e-01  3.8969660005849122e-01  6.8176173608219412e-02  5.2690654161308102e-02  7.0997076438875151e-02  3.2123925185647056e-01  3.0683106789714132e-01  3.0633213291206124e-01  3.7775005332868872e-01  3.4104301707912410e-01  4.5435762735198193e-01  4.2980729752908164e-01  4.3195064614802281e-01  3.2401379349017934e-01  3.0831611212885934e-01  2.9100372485671733e-01  1.3979028737110466e-01  1.0797124398027982e-01  7.3546803983161865e-02  9.0082604428202318e-02  8.5268860057078497e-02  7.5929166830616859e-02  0.0000000000000000e+00  1.1922483753930097e-02  2.7110701873678148e-02  3.0786719363121096e-01  2.9047402058988975e-01  2.9928876322731485e-01  8.4768306324884427e-02  1.2351993053141919e-01  1.4913565935147099e-01  3.5407691508118283e-01  3.3407293982407549e-01  3.4507123271678680e-01  3.3623068686783636e-01  3.1986254083794918e-01  3.2162366665819042e-01  3.0282220078817279e-01  2.4486119623043593e-02  3.3804721393704509e-02  6.5860036810766090e-02  1.2086236321641783e-01  1.2809474142814892e-01  1.4195830233179724e-01  1.4127652237054431e-01  4.1888276537369912e-01  4.2458313478221693e-01  4.1500452291031731e-01  3.7022248121342688e-01  3.8413796510094966e-02  4.2055607628539181e-02  4.2894232389057901e-02  5.8340629444667724e-02  2.3522754495153544e-01  5.4993922558501399e-02  4.3235526703765584e-02  3.9535854652826011e-02  5.4916665617179790e-02  0.0000000000000000e+00  1.0826360038858843e-02  1.3216764680503494e-02  2.6468848682480539e-01  3.0442970110097489e-01  3.2125226789588135e-01  1.4276845995821136e-01  1.7366361591466931e-01  1.5028457777690549e-01  1.9560010039607756e-01  1.7837162377625279e-01  3.5930301797246428e-01  3.6931509643031663e-01  1.3518353724446916e-01  1.7803178077827289e-01  1.0737777750703655e-01  1.2471964314988940e-01  1.7535472914654712e-01  1.8030898790240860e-01  8.8756340175579956e-02  2.4147621373763341e-02  2.0918905186163874e-02  4.4261471778396722e-01  4.5426607372758743e-01  2.0437308149497382e-01  2.2035751595143802e-01  2.0474441122915271e-01  1.8713310825118720e-01  1.7486137764781814e-01  2.0726885935823596e-02  2.3267902085192908e-02  1.6931979544740561e-02  4.5391660754675857e-02  4.2120793195461470e-02  8.7694747592468772e-02  1.0335274255667928e-01  4.3779361207455642e-01  4.4721143673608510e-01  4.3472618736531843e-01  4.4874897375450690e-01  4.4134753462148513e-01  4.4783923268663806e-01  4.4542774598794233e-01  1.8658286043384967e-01  2.0748788471105531e-01  8.5391795507096649e-02  7.1476266265638230e-02  8.0537739585594181e-02  2.6170450984385800e-02  1.1779603392289189e-02  1.4235034915469746e-02  2.5705266922288184e-01  2.7206927819483739e-01  3.0737907613519522e-01  3.6786004377868642e-01  3.6838267720827717e-01  3.5376953139309608e-01  1.3390901798345209e-01  1.4054821440385065e-01  1.5000195885468637e-01  4.5211343602526384e-02  0.0000000000000000e+00  0.0000000000000000e+00  1.8591071299171598e-02  1.4841960405717305e-02  3.1857179259388591e-01  4.4291351640005316e-01  1.0140711366405745e-01  1.2042460306000119e-01  1.0010946679412007e-01  4.0835976235604110e-01  9.0727813437543312e-02  4.3298032260228402e-02  3.6219664812234581e-01  3.7669101209110212e-01  3.7358402077686242e-01  3.9039644786144406e-01  3.9028788172227963e-01  3.7822623789072496e-01  3.2850767988666041e-01  2.5696947780968343e-01  3.9175326112502684e-02  5.9743817319579694e-02  1.2127256081057383e-01  2.2716259813343112e-01  2.3022528008839244e-01  2.8151872878434797e-01  4.2125336476641695e-01  4.1312239262200218e-01  3.3722350076958701e-01  3.6092274218237202e-01  2.1346618620316246e-01  1.9458250844110320e-01  2.0749473692621953e-01  1.0011742898206683e-01  6.7895544709476063e-02  2.4995909706915370e-02  2.4954470483746306e-02  1.0582872779708539e-02  2.7449605069266764e-02  1.2489647331708412e-02  4.0284406260949840e-01  3.9588367319295842e-01  4.4776366561352077e-01  4.4700603885852830e-01  4.3734827710682195e-01  0.0000000000000000e+00  0.0000000000000000e+00  3.6724641060790861e-02  2.0437745000358869e-02  1.8870668536718252e-01  1.550247825