<?xml version="1.0"?>
<VTKFile type="UnstructuredGrid"  version="0.1"  >
<UnstructuredGrid>
<Piece  NumberOfPoints="1134" NumberOfCells="2149">
<Points>
<DataArray  type="Float64"  NumberOfComponents="3"  format="ascii">-0.5441219212998575 -0.358688083414564 0  -0.5765776306118481 -0.3686864440037019 0  -0.5569902787287407 -0.3268101618816875 0  -0.8410975717287933 -0.1395072905294205 0  -0.8354859562490059 -0.1121393047518148 0  -0.8160414078151036 -0.143940225846131 0  -0.2532586164762539 -0.4337438936396583 0  -0.2604143965391758 -0.3998650934601126 0  -0.2797158256545105 -0.4216369957322594 0  -0.1025954134604321 -0.4546232205523414 0  -0.1266730491007733 -0.4918819546073589 0  -0.09691916730404182 -0.4847005572060625 0  -0.7940852375801325 -0.07137316872466712 0  -0.8129656909437549 -0.04165552122524915 0  -0.7656060483003411 -0.05182846953038278 0  -0.4373093509364797 0.001634310771041625 0  -0.4640165526929844 0.008695773119353517 0  -0.4329343824233777 0.0290702357416256 0  0.1199221538977548 -0.9000079375435778 0  0.1431677361889669 -0.9417704170872273 0  0.1056882459418261 -0.9304575809500495 0  0.06824102899309431 -0.8796965027637446 0  0.0519845080383419 -0.9104794197143635 0  0.03857802175663441 -0.8837154177433899 0  -0.03165678354576521 -0.2907079637490915 0  -0.04714016004606073 -0.2525292510384027 0  -0.06022108807420518 -0.2800632191856926 0  -0.09822467029515634 -0.7285165233009198 0  -0.1119313494050668 -0.6971613808680818 0  -0.1326310079111961 -0.718115325281744 0  0.3007311546569934 -0.7132751337163624 0  0.268649511610813 -0.7227605910392395 0  0.3051159099885882 -0.74565385731203 0  -0.3666163925164496 -0.5816141831357999 0  -0.3691133504593386 -0.6228377920227477 0  -0.402301941823315 -0.5984340698406342 0  -0.3913506256423302 -0.5142670598452614 0  -0.4250310656908753 -0.5266367026041526 0  -0.4159211932663701 -0.502553863198151 0  -0.2727357442370261 -0.1139698713880369 0  -0.2943017683746092 -0.1565196089387307 0  -0.3063227185248055 -0.1236867182352507 0  -0.2968302873539247 -0.4466149365476618 0  -0.2799475439007661 -0.4802073939810227 0  -0.2624121975818798 -0.4593829131919249 0  -0.7454603311488852 -0.5423613958312614 0  -0.7103791313606034 -0.5507540080827487 0  -0.7228418780588967 -0.5253322268461387 0  -0.2155186650080483 -0.4084486310043501 0  0.1877994808039191 -0.4789624818228146 0  0.18857227839039 -0.5115637934749382 0  0.164906824444952 -0.4974715723303403 0  -0.5535428208305013 -0.2292849437422536 0  -0.5648012582384903 -0.2696014635242177 0  -0.5917829336642244 -0.2371162115705051 0  -0.3350033003568829 -0.7359157713821145 0  -0.3584096184419623 -0.7678723640737219 0  -0.3283212549976047 -0.7709913427707766 0  -0.166193953523619 -0.4717314232244936 0  -0.1702025126876615 -0.4295335658824921 0  -0.1385274804499625 -0.4478139398932881 0  -0.8478530373173159 -0.046397161777502 0  -0.887198166494877 -0.0655626578819532 0  -0.8577071879977455 -0.07267113318337655 0  -0.3099359594350449 -0.7950125531888582 0  -0.2751475593023677 -0.7596201914282705 0  -0.306130994928509 -0.7504333759224151 0  -0.274329400818586 -0.8766984697653405 0  -0.3038839355727364 -0.8409778359044735 0  -0.2629258197877798 -0.8371766448902915 0  -0.5553672154460828 0.1314190645461342 0  -0.5461213685775101 0.08606836292998724 0  -0.5703826334799396 0.1047399587464832 0  -0.3455696877361558 -0.4362448378226669 0  -0.3258580942965404 -0.4093110514399137 0  -0.3609297973707213 -0.4075234269722106 0  0.0815758327469593 -0.2844987878142674 0  0.1038721286438136 -0.3192060348676103 0  0.1154745574315511 -0.2708647663994368 0  0.08604300669319788 -0.3545557692735667 0  0.0643116231438611 -0.3207705529051588 0  0.1295464534015014 -0.3939636575994285 0  0.1064338617198637 -0.4124464014104867 0  0.1448361757922854 -0.4208559592839465 0  -0.3039688822958979 -0.06416621281764143 0  -0.2711500678832953 -0.07828007751554661 0  -0.2754333760943877 -0.0480766159912839 0  -0.8852110950197181 -0.2137091567995184 0  -0.9236289974331147 -0.2217362706346047 0  -0.885122883614721 -0.2467618146896367 0  -0.7301573753217775 -0.5809193455547783 0  -0.7209730744814395 -0.6238872753123897 0  -0.6950428051256249 -0.5983052377397224 0  -0.6979193891197244 -0.3546402351623636 0  -0.7138531650202711 -0.3307417459363939 0  -0.6743728412343886 -0.3384522276757841 0  -0.8291530868949156 -0.3094176941438118 0  -0.7896920172208287 -0.3008184215994915 0  -0.8053238789699632 -0.3239263958397401 0  -0.642138544674596 0.01257226564310446 0  -0.6878262986643295 0.02886723136166872 0  -0.6526160876609264 0.05539242199523189 0  -0.1266635457260406 -0.08674110354568812 0  -0.1635254523745491 -0.08816857548143278 0  -0.1325884900385813 -0.1135548225961865 0  -0.1706755439590506 -0.1568763186035039 0  -0.1258516062977613 -0.1401761466032385 0  -0.1455336670512015 -0.1721333993142492 0  -0.4071712888596457 -0.1971673901732101 0  -0.4206722921022882 -0.2196895306739997 0  -0.3863062381333997 -0.2122001525785641 0  0.1253379956719456 -0.8371358306598619 0  0.1322411385722026 -0.8061167926585079 0  0.1479475933651601 -0.825889841457792 0  0.2934164918890293 -0.8612774348549732 0  0.3227623235642592 -0.871538612125301 0  0.2822172595041592 -0.8910264873869124 0  -0.2061434166370174 -0.4520053066724423 0  -0.2333317737902565 -0.4522421037727033 0  -0.1571382082759987 -0.7950905585620359 0  -0.1218264222929869 -0.8096543748250079 0  -0.1458876500424629 -0.7688446150262466 0  -0.6774939983300903 -0.6302248068985857 0  -0.6463983005318535 -0.6642643784626333 0  -0.6470760980630753 -0.635376377384978 0  -0.9238680557959388 0.1659280723833087 0  -0.9355506157828866 0.2068678302057455 0  -0.9051323095323698 0.1934112459210854 0  -0.6291120070625913 -0.03469761255245083 0  -0.6686754428094558 -0.02017057174366552 0  -0.614649649400687 -0.2054816055707221 0  -0.6359155503292063 -0.2424224662444199 0  -0.4738807575056957 -0.01710803163056955 0  -0.5057545180527914 0.01973141337738394 0  -0.5106957648776452 -0.0138485558013659 0  -0.2270263162209431 -0.9111383718152852 0  -0.2409410440392607 -0.8805449402730079 0  -0.2087104940359062 -0.8843467210900062 0  -0.03649879830564495 -0.7024508719317977 0  -0.05434316291145553 -0.7463128781214077 0  -0.06837436388434862 -0.7179116564338537 0  0.02271111445801087 -0.2466006138022283 0  0.04921455287866645 -0.2136283899225227 0  0.001287880775235811 -0.213280315875006 0  -0.08819145914922825 -0.2560134861104798 0  -0.08294274772807189 -0.2116891776520932 0  -0.1174923456135461 -0.2244044812744155 0  -0.5416135842843132 -0.4433680349964033 0  -0.5466266768312872 -0.4074183480198355 0  -0.5764599568157619 -0.4465298604780202 0  -0.5723784974555806 -0.7508609640271169 0  -0.5578509213974128 -0.7135211595210424 0  -0.5853593329972577 -0.7221437485714772 0  -0.2120900412591529 -0.4820426978058877 0  -0.1866638372586035 -0.4879174965664346 0  -0.2344655869365065 -0.5518887928560327 0  -0.2232202113522217 -0.5843276522251416 0  -0.2019937614081083 -0.5441247067071635 0  -0.4975666954863948 -0.134795490103003 0  -0.5060921069087164 -0.08984808156695877 0  -0.5428072582908655 -0.1224237198472427 0  -0.3820378504744532 -0.07720900165447629 0  -0.3768681022823627 -0.03162498317288738 0  -0.3450701945451619 -0.05831639246971808 0  -0.5815381566199812 -0.1488753121763688 0  -0.6037984335336571 -0.1128166049525345 0  -0.5730811055580373 -0.1162124343825699 0  -0.7829900343778728 -0.3406456350858423 0  -0.9938441702975689 0.07821723252011555 0  -0.9907662554463532 0.1173258487801733 0  -0.9615686525209594 0.0953525208886026 0  0.0231928155670889 -0.1802746947302631 0  0.02304601464950326 -0.1450050219121411 0  0.004161121639675046 -0.1627187673287056 0  0.1294695806058722 -0.1777167641614958 0  0.1199760160677406 -0.1471804808004611 0  0.1015414005360553 -0.170729792421993 0  0.01585239978995566 -0.3534535003367468 0  -0.03178540446998922 -0.3576696617950668 0  -0.006497935904761709 -0.3721547028134982 0  -0.5428943701632762 -0.5556008459889474 0  -0.5625322794123481 -0.5239646311849037 0  -0.5344364592045275 -0.5204671722590559 0  -0.5770363405682046 -0.5686103056888767 0  -0.8840529801908102 0.07503033614843499 0  -0.854299198160419 0.05793764956431513 0  -0.8800080944261081 0.04762837752702911 0  -0.1174909263566684 -0.7718530525879488 0  -0.1763497559915594 -0.8818881596967517 0  -0.1698226233396077 -0.8378079409605544 0  -0.1937651770766264 -0.856786030724175 0  0.2529312799413386 -0.8012992728399679 0  0.2975684718453496 -0.8148220276284073 0  0.281642659294784 -0.7869587443019139 0  0.2144627031643363 -0.8917499236169515 0  0.2237873953233911 -0.9306213313090586 0  0.2347105033463606 -0.9074469009724188 0  0.02990886030073693 -0.6935332302827742 0  0.001158975109081618 -0.7311595646329223 0  0.03909134584814009 -0.7413311838754355 0  0.1588281316310452 -0.6615667801666836 0  0.1163965659875906 -0.6560203066685862 0  0.1406579619500511 -0.6957617206677086 0  -0.1241303955199356 -0.5682811077586559 0  -0.1227163133898359 -0.5343224432690959 0  -0.0875844305370822 -0.5509712758131395 0  0.2964390745302059 -0.4640277723462716 0  0.2569474812884434 -0.4728699081009705 0  0.283870811463501 -0.4866722052249291 0  0.2728222534553556 -0.5100957178319351 0  0.2455628306779195 -0.4973926927016669 0  0.2660995786479711 -0.5470486645584501 0  0.2465825874663043 -0.5244100450920918 0  0.2397701647893647 -0.550015317190814 0  0.0825405358755302 -0.6298483683324381 0  0.0877814960857464 -0.5885354120358075 0  0.06444242247063409 -0.6065635301263742 0  -0.6485729167868159 -0.1991468077150175 0  -0.6302378419866136 -0.1751544796858254 0  -0.7598339638778754 -0.3162715135673669 0  -0.7543728454763795 -0.2877235541198104 0  -0.1597243371445307 -0.1177650834275732 0  0.0455101775939576 -0.1178143478783519 0  0.01379263872750023 -0.1184911964587452 0  -0.019854766658668 -0.570384483292773 0  0.01002779297466803 -0.5953415153613334 0  -0.01592059019181793 -0.6089086201959784 0  0.09132515280281757 -0.6906991960991645 0  -0.4090925062851792 -0.021831
[...]
<PointData  Scalars="f_2282-2"> 
<DataArray  type="Float64"  Name="f_2282-2"  format="ascii">1.6704485179156420e-01  1.5033542015780227e-01  1.6995958676296424e-01  6.6178890607811208e-02  7.0865203282963876e-02  7.7926986247979516e-02  2.4119259016999123e-01  2.5287562375292283e-01  2.3943537994889369e-01  2.5805656021855383e-01  2.3851947831698905e-01  2.4493221831574030e-01  9.3257330344281811e-02  8.5008573369708323e-02  1.0827043458315067e-01  2.7100758469428515e-01  2.5885982550403447e-01  2.7239090091339085e-01  3.9851393780411713e-02  1.9933507849919523e-02  2.7112827261911481e-02  5.2035559097163613e-02  3.8090678416651959e-02  5.1096386999764397e-02  3.2762846304382476e-01  3.3871182585646448e-01  3.2954107690033030e-01  1.2459137331502114e-01  1.3932399701682824e-01  1.2692265393284299e-01  1.0495252801655065e-01  1.0640474417308241e-01  8.9137531018239263e-02  1.4871536199022664e-01  1.3021340539504953e-01  1.3159859609367014e-01  1.6980402088633734e-01  1.5419978719021182e-01  1.6665634181910932e-01  3.2646405357018504e-01  3.1337096167474210e-01  3.1430867277087765e-01  2.2498626511812114e-01  2.1517131413471882e-01  2.2826258900488569e-01  3.3784652367202433e-02  4.4275029394814501e-02  4.6680061099616567e-02  2.6013257752894958e-01  2.3532947145541139e-01  2.2049539116825559e-01  2.3064216097887635e-01  1.9365720690334223e-01  1.8022797211753303e-01  1.7418897471442588e-01  8.7889286313139206e-02  6.8617991890151553e-02  7.3165322253069348e-02  2.4225423351706676e-01  2.5997522488015634e-01  2.5681731345580366e-01  6.7860848958824327e-02  4.8702004192483321e-02  6.2275604716159227e-02  6.5987236267064847e-02  8.8036667091344167e-02  8.6668133944544964e-02  3.5255881062395675e-02  4.6636142210990481e-02  5.4285656237900284e-02  2.0783460451740690e-01  2.1673514964137081e-01  2.0334551792132255e-01  2.1491359729172185e-01  2.3121228382343070e-01  2.2081991070247070e-01  3.2649366740910585e-01  3.1241683957982558e-01  3.2696512874957578e-01  3.0130045343927031e-01  3.1550157757283581e-01  2.8088322626290407e-01  2.7583388128145925e-01  2.6744097967554975e-01  3.2133621309982252e-01  3.3083909081846608e-01  3.3171193183636044e-01  3.8868542750977245e-02  2.0904238503065695e-02  3.5058480418123442e-02  2.8661582099054003e-02  1.9179951158478866e-02  3.5892200614728732e-02  1.0056277938988331e-01  9.8467613025228357e-02  1.1471389617475440e-01  5.0891369297553148e-02  6.9936150008213349e-02  5.8743882422262993e-02  1.7192620357138125e-01  1.4824252709572397e-01  1.6532733116566933e-01  3.6398123639310825e-01  3.5728233007500204e-01  3.5969097019679452e-01  3.4605451477212062e-01  3.5690579032301650e-01  3.4742277162155738e-01  2.6423450451098923e-01  2.5407668544268414e-01  2.6937139121462822e-01  6.9124775293119251e-02  8.3720257375351118e-02  7.2625744127027339e-02  3.9232917756161383e-02  3.0280408274888395e-02  2.8002134439190078e-02  2.4375333813260111e-01  2.3792783069559820e-01  8.6792834889795611e-02  8.2666016557372851e-02  1.0063108109954344e-01  3.2269230565202832e-02  3.1516917166493158e-02  4.0473932742182230e-02  2.6271586685575977e-02  1.7222763826078596e-02  3.1937784998126655e-02  1.7795808144780043e-01  1.5823219242450284e-01  1.6882228951287445e-01  1.5240506140484711e-01  2.5434573016915185e-01  2.3944095580849836e-01  2.3701891063349706e-01  2.5759832002971994e-02  3.7685608811580534e-02  3.9818346587940284e-02  1.4060774587280697e-01  1.1782732412249378e-01  1.3158174001229367e-01  3.4152988347171964e-01  3.4932421598545116e-01  3.5085394731710007e-01  3.3456240525861036e-01  3.4710181216084768e-01  3.3987970995812655e-01  1.4235010530585088e-01  1.5174670177584312e-01  1.2742908916000606e-01  2.3763730142563062e-02  4.1046632107557837e-02  3.0029889247201520e-02  2.2957945627292400e-01  2.3149410442928697e-01  1.9321352204620140e-01  1.8040685628614014e-01  2.0303592036204973e-01  2.3497057215008380e-01  2.3564825193787609e-01  2.1494818442449437e-01  2.9129673765540953e-01  2.9606163714075029e-01  3.0708166791588370e-01  1.9310677143253366e-01  1.8606742897494710e-01  2.0086747014260975e-01  6.5695075707405987e-02  0.0000000000000000e+00  0.0000000000000000e+00  1.3687420078845028e-02  3.5831475088280684e-01  3.6502503954553689e-01  3.6194974509848499e-01  3.4919002109441161e-01  3.5631180259935136e-01  3.5424808420331289e-01  3.0553852973659318e-01  3.0371827705758880e-01  2.9825582440821419e-01  1.0346016962569463e-01  1.0746241771293048e-01  1.1916997065296109e-01  8.6956537034976328e-02  4.9725141382459939e-02  6.4585920244482870e-02  5.2472576623807547e-02  1.0153984229003755e-01  4.4017622638570363e-02  6.5282829027827588e-02  5.3748161720343995e-02  7.2184708556764426e-02  5.9065924502585396e-02  7.4432965438238324e-02  3.5881122503356060e-02  1.7547388663046216e-02  2.6587400186668036e-02  1.4534444523285298e-01  1.2650323409012995e-01  1.2085322969645479e-01  1.5234077068490282e-01  1.5962831804556740e-01  1.3740060304663293e-01  2.0243591702630140e-01  2.1900145010847732e-01  2.1420175776619554e-01  2.1774133365974060e-01  2.2393801121709062e-01  2.1151332290097952e-01  2.0401415906154952e-01  2.1577335178465337e-01  1.8893105974251975e-01  2.0347192582883838e-01  1.9326504311831269e-01  1.7541023360877769e-01  1.9576199270290193e-01  1.8807892382709729e-01  1.5338177367001321e-01  1.6573531518666276e-01  8.0538468413472342e-02  8.8242903299226946e-02  3.5429732427423255e-01  3.6864854581668960e-01  3.6946395181465441e-01  2.0787180206061240e-01  1.9554562566374037e-01  1.8852324798968648e-01  1.4409829013911318e-01  2.8286355934737528e-01  2.8570909920697835e-01  3.2806258836284152e-01  0.0000000000000000e+00  0.0000000000000000e+00  1.2758237182746429e-02  3.4702333068338559e-02  4.5900043542408057e-02  3.1616670419489866e-02  9.0510632422474160e-02  1.0117673286821094e-01  1.8178917251005847e-02  1.8900079363673564e-02  9.0893586673776259e-03  2.3487688178561691e-01  2.1677598188689881e-01  2.2137858957854845e-01  2.4305239485790217e-01  2.5282918334918253e-01  2.3845703690481329e-01  8.2259018084429605e-02  6.2728426846953761e-02  4.6853164583626115e-02  5.3420505132959900e-02  3.3821483777896277e-01  2.7372993914533827e-01  2.6574307154565480e-01  2.6191370326511543e-01  2.8633631274079857e-01  2.9570436419939022e-01  2.9185864640024189e-01  3.0498975048649485e-01  3.1806794026707280e-01  3.1491353391896659e-01  1.3714364893840961e-01  1.1859726647802429e-01  1.3020824445713725e-01  1.6901703202576390e-01  1.7035900750065844e-01  1.5410320896987911e-01  1.1390529438569180e-01  1.1453622814422497e-01  1.1478994647642538e-01  1.1487748723809088e-01  2.5378063526027633e-01  2.6005901460223985e-01  2.6440127800603863e-01  2.8419530695958789e-01  2.9198495718157241e-01  2.7220890146555776e-01  1.2848921467410976e-01  1.1677883037074174e-01  1.1262247170020365e-01  2.1522555393150677e-01  2.1000140541345971e-01  2.2543967095153139e-01  1.6777628846420051e-01  1.6106657885422401e-01  1.8422064452713441e-01  1.6449432270164724e-01  1.4648381355701029e-01  1.6467780083455030e-01  1.2855733302408903e-01  1.8620703216104578e-01  1.6411496537467132e-01  2.5347284758588617e-02  1.9383701697464926e-02  3.6932768042126543e-02  2.8301240686234262e-02  4.8814990298140910e-02  3.5580975842548865e-02  4.6244592453956089e-02  1.4328412650249381e-01  8.6166859736067719e-02  8.5801320924285801e-02  1.0533221046010609e-01  1.4325214998866614e-01  1.3130874988485092e-01  1.2478246382178791e-01  1.1075691492220764e-01  1.0676259718071172e-01  1.8160552894441279e-01  1.7886526284518953e-01  1.6734881288162287e-01  1.9481927485422162e-01  1.8251920015648129e-01  1.8111688471479812e-01  2.0062055132273843e-01  1.8795287145120071e-01  1.9421004590931354e-01  1.4268603911652827e-01  1.5504494830800289e-01  1.5713717563581125e-01  7.0622961874212756e-02  5.9684503255050085e-02  7.5063708102820412e-02  6.0521050826694581e-02  1.3406185969264164e-01  1.5151632010341945e-01  1.3418885970760844e-01  1.7089273823130918e-01  1.4607355689137741e-01  1.3324872684449290e-01  1.5605641803274198e-01  1.1321116835712870e-01  1.1820303153299878e-01  1.3094274176680418e-01  1.2147710715312382e-01  1.3652682189190959e-01  1.1960315415455919e-01  9.6405037318147979e-02  9.0866066129943024e-02  1.0709867571421265e-01  2.2339041597655857e-01  2.2025356665519705e-01  2.3074994702327753e-01  2.4486647659662614e-01  2.5101100673988730e-01  1.6896084989201662e-01  1.4607945642178904e-01  1.5102742673506878e-01  4.0230169525541613e-02  4.7062325110655827e-02  3.3498174473879774e-02  6.5365144355962454e-02  6.5690207482650809e-02  2.9566923929865107e-02  4.3038841217625856e-02  2.9375495990474038e-02  0.0000000000000000e+00  0.0000000000000000e+00  1.4832154859869790e-02  6.1736564817275595e-02  4.8884158249982657e-02  6.7731219007901869e-02  2.7339715123162939e-01  2.1738249034404056e-01  2.3517561961820171e-01  3.8677825913681928e-02  1.8429945022527032e-02  2.6444812461926242e-02  2.3805298809046124e-02  3.7660813181510468e-02  0.0000000000000000e+00  1.5851309372408088e-02  1.3735969560394943e-02  1.8661974315740987e-01  1.6269701074314596e-01  1.4377906154244949e-01  1.0540421746920915e-02  2.2233305486292567e-02  0.0000000000000000e+00  1.0724978346904923e-02  3.5054940599934886e-01  3.3820181171252800e-01  3.4275701665656988e-01  1.7536482450182322e-01  1.8185445972682060e-01  1.6564887789795826e-01  1.8887247663528323e-01  1.7467621152208618e-01  1.9935561537401006e-01  2.2898069064368651e-01  2.3454398384274536e-01  2.2170022221020177e-01  2.6561469421381823e-01  2.6133753410045824e-01  2.4811550236478350e-01  2.6486278348450670e-01  2.5496669714201714e-01  2.6136048658424577e-01  2.6502272503918101e-01  7.3079476412145863e-02  7.6921995091766560e-02  6.6622641630400742e-02  1.6377069430127142e-01  1.4597312601968146e-01  4.5295503791976562e-02  3.2061911346692472e-02  1.0226969891654787e-02  3.3435610852232317e-01  3.4005093946889936e-01  2.0265567779398651e-02  1.0358608158049745e-02  1.4525380560542095e-01  1.3217044363314667e-01  2.5352311740267075e-01  2.6751743785722515e-01  2.5171135726830268e-01  2.1573773130062054e-01  2.2947292899587221e-01  2.1339613939634575e-01  2.2327467940826293e-01  2.3189393538923853e-01  2.4400119901595568e-01  2.2413149168159441e-01  1.8035598538958195e-01  1.5665032789557126e-01  1.6463238798478644e-01  1.7597737621422327e-01  1.9025025304051543e-01  4.9991155258402697e-02  5.7825333623104214e-02  2.6844420766044497e-01  2.7975380303580638e-01  2.6713068738450579e-01  2.0890141589904238e-01  1.6120328012188048e-01  1.3264282646166772e-01  1.8580124622149762e-02  1.7258829567942693e-02  1.2744917936040867e-01  1.3299037704129377e-01  1.4899753474733485e-01  7.0615000419294291e-02  6.7715126050431007e-02  6.8549972761621628e-02  8.4005533647979372e-02  7.2444587955978051e-02  1.7302333268068907e-02  8.5489238260092484e-02  7.3315363952073456e-02  8.3995320127253276e-02  6.0029734141955754e-02  1.8502633850927687e-02  9.5340915111351721e-03  2.0601977709817698e-02  1.3776102103100599e-02  2.7063552547618656e-02  0.0000000000000000e+00  0.0000000000000000e+00  1.1329369084891520e-02  2.6293705639873616e-02  5.4028005769111764e-02  4.7394581685564728e-02  3.6315085967006611e-02  1.9836415833576440e-02  2.5781166005875718e-02  1.1624910544383455e-02  3.1424910799400560e-02  2.0948378043751548e-02  2.3754270886269600e-02  1.9818231999124278e-02  3.3036596189709944e-02  2.3355307332846797e-02  3.1504536446380654e-02  1.2403835052702939e-02  3.0439635079286076e-01  3.0149770463306419e-01  2.7077667225795221e-01  2.7998844727954658e-01  4.4969601532386640e-02  1.0002969334040575e-01  7.5887797569684987e-02  1.2970757603133617e-01  1.1255628880522422e-01  1.1228520801830735e-01  9.9602273619727108e-02  3.0767893924895762e-01  2.9629938365667641e-01  2.9536375742987991e-01  3.0998138824406962e-01  2.9057454544427314e-01  3.0024716764228288e-01  2.8793157753860077e-01  2.7565275654184535e-01  2.8675118823926982e-01  3.6148679200080369e-01  3.5453770261239298e-01  3.5023931333364988e-01  3.4196111025453635e-01  3.2484220968764121e-01  3.2258306059243308e-01  8.3401088498642043e-02  7.0559391824958559e-02  8.3188736314128056e-02  6.3245331387017448e-02  3.2019879879586222e-01  3.2174690224212671e-01  3.1044864013969981e-01  2.3054149809622954e-01  2.4804525210714393e-01  2.4077775365764834e-01  2.7454902702901657e-01  2.4178728274096367e-01  2.3734037613857556e-01  2.3700954586913250e-01  2.5224910765222208e-01  2.5152228791383757e-01  4.2110977883825902e-02  3.0532566270135873e-02  4.0265120722381371e-02  5.0851186584528099e-02  3.5182585911226007e-02  3.5326849242519937e-01  2.7167620905861339e-01  2.7117105757803672e-01  2.8067489633877601e-01  2.8656932559691928e-01  2.8393864371797345e-01  2.8631815068760569e-01  9.2076118138911756e-02  7.2958881690753472e-02  7.6740183140259294e-02  7.9204308877390148e-02  6.2462218127819595e-02  7.6105861716784767e-02  1.9100543053640057e-01  1.9795204422144039e-01  1.7676847485312921e-01  2.0219914489407528e-01  9.1660635581879923e-02  1.1263865046513080e-01  1.0698127825005745e-01  1.3551613155259085e-01  1.9350230298800275e-01  2.0609455258382059e-01  2.0684276702182391e-01  2.0823194109209386e-01  1.9510885516007270e-01  1.6978449600695825e-01  1.0215686622115080e-01  3.6971991564034808e-02  1.5898505589564467e-02  4.7408774302683331e-02  3.5292359117359492e-02  1.0134931844758548e-01  1.1269632126874814e-01  9.5923595948312165e-02  5.4644060921954382e-02  7.0782948732050335e-02  6.0512557363611948e-02  8.8899274839412054e-02  8.0125526518276077e-02  1.9313590608464984e-01  1.9979719307166807e-01  1.5170100750203361e-01  2.0395148161008747e-01  2.1508413869297005e-01  1.9829674548635484e-01  1.9263093778190446e-01  2.0324606330949460e-01  2.8259502218447832e-02  3.4574465603656165e-02  2.3089827198343290e-02  2.6412097236090643e-02  1.2652545164592310e-02  8.8058114592654418e-02  7.4400332312978976e-02  9.2970183100973505e-02  1.0434120365835577e-01  1.1873845350153715e-01  3.2439307916683102e-01  3.1399023244826602e-01  2.9985279242879637e-01  2.9093676487754627e-01  3.3777431285925918e-01  3.3747462966320813e-01  7.2397521970198581e-02  8.5019729040428288e-02  6.2128854742533803e-02  4.9898149883107250e-02  1.0006220031119617e-01  7.9585430060069656e-02  5.5295145363365113e-02  6.0637215829979073e-02  1.6516066071957244e-01  1.5067888385958558e-01  1.6171020984909887e-01  1.1685954745530920e-01  1.7469681140639021e-01  1.6008253003355891e-01  1.6305346112608887e-01  1.5619967373268759e-01  1.4419473090885931e-01  2.0427630830444932e-01  2.1985088886499868e-01  2.1941657828371619e-01  2.3155560487318666e-01  2.4998414091363236e-01  2.5497316112765717e-01  2.5402238170480307e-01  1.9259766671715259e-01  2.1402384347205441e-01  2.0274635487500128e-01  2.1300098281470672e-01  3.0490109701352508e-01  2.0368528238671255e-01  1.5027836412868967e-01  3.2176924138894947e-01  3.3053742179291690e-01  2.1087408932088908e-02  4.0117585705014697e-02  2.8182302992351393e-01  2.6983022027557035e-01  2.7846564056012696e-01  3.3017714687073640e-01  3.3963702431142501e-01  3.3083346940301150e-01  3.2096296303744482e-01  3.2605914700921085e-01  1.9031640387735936e-02  1.4937350837831856e-01  1.6010355140086885e-01  1.3743015547716528e-01  1.1680669363678735e-01  1.0077640165775825e-01  3.5948873640778073e-01  3.5700324647001130e-01  3.6352921967948659e-01  3.6758412653203332e-01  2.1380085846425749e-02  1.6155228259664811e-02  3.2133447279064066e-02  4.4920157720291003e-02  5.8786448518784749e-02  5.6861799845003093e-02  4.1794477521601002e-02  9.6374032812774998e-02  1.0566972578710737e-01  9.0249339210970586e-02  1.0354357627905338e-01  1.0286686964728757e-01  1.2174321470309726e-01  1.2296837240753575e-01  3.4044057240532566e-01  3.3847409989863897e-01  3.4744078300785680e-01  3.1466617599981850e-01  1.8400886857795351e-01  1.1761350503152682e-01  8.4829614997547334e-02  7.5924406043734155e-02  7.7361981031527055e-02  7.9232097650079547e-02  2.2380477776254062e-01  1.9915818153203796e-01  1.7522131555086698e-01  1.7955183765200919e-01  2.0753686175770397e-01  3.5053632597712442e-01  3.5366251526770509e-01  1.8214630996002470e-01  1.9363130344864418e-01  1.9061004213566393e-01  3.4746514943486179e-01  3.4378332747687745e-01  3.3943076855358462e-01  3.3350783998677963e-01  3.2290872475545318e-01  2.5673066191720884e-02  4.2527871063783668e-02  0.0000000000000000e+00  1.0193900629548430e-02  2.0189270091409928e-01  2.1635599619061613e-01  2.0477379103709470e-01  1.9016203813621763e-01  1.0071076154741124e-02  6.1833675521648084e-02  5.5397255863690147e-02  1.1267372504474529e-01  1.2918320002213199e-01  6.4136777239653539e-02  1.1471640984586187e-01  1.5868005844154900e-01  1.0072554245212444e-01  1.0187491420531883e-01  1.1700851010686522e-01  1.0982426719568877e-01  8.9354933864025127e-02  2.0388264524790128e-01  1.9004312892167921e-01  2.0053321427761592e-01  1.4440106443702879e-02  3.1661929788416154e-01  3.1272159126693000e-01  2.6815170596148286e-01  2.8113756698693415e-01  2.5611401746384999e-01  2.4359890771387455e-01  2.8463749114205061e-01  2.9630806752855976e-01  2.9319490398260595e-01  1.8191782327471240e-01  1.7932919038526721e-01  1.9417008671081235e-01  2.0734099516738297e-01  7.3297524111453724e-02  8.4711445564332286e-02  3.4836218213365910e-01  3.5421982008760844e-01  5.8534068541280314e-02  7.1847728993837415e-02  4.9598464774942057e-02  6.0515835985734234e-02  3.6821503173246273e-01  1.0026533903829385e-02  1.1392022748076290e-02  4.8342664614281813e-02  9.2926765242569726e-03  8.8404869326995077e-03  9.1677616652823674e-02  1.0159398239328725e-01  7.3995339420628498e-02  7.2614838093784592e-02  2.2984193988898055e-01  2.9134222666632115e-01  2.7748260642835937e-01  2.9078343121956518e-01  2.9186772056984339e-01  2.0463423904514691e-01  6.3397550459323979e-02  5.6022809849110247e-02  1.8223280113161232e-02  8.6081642253855624e-03  5.9614728695516178e-02  2.6772531515750597e-02  3.6975540064581071e-02  2.8881731580529247e-02  2.7911788205277538e-02  3.2964994412905690e-01  3.2002613413457864e-01  3.2110030681354151e-01  3.1038457855704771e-01  4.2446592427486919e-02  5.4633674288434415e-02  5.9419268505332648e-02  2.4071507312039414e-01  2.4690551886598394e-01  2.6683452102369482e-01  6.1536652976172335e-02  9.5056486977488086e-02  2.1384023512487782e-01  2.0797238212546409e-01  2.2179769623586124e-01  2.3458136662136031e-01  2.5627780135904932e-01  2.4415829349559914e-01  1.1536916298939173e-01  1.4167697335197929e-01  2.7535720813612635e-01  2.8320114762747389e-01  2.8952437679821158e-01  1.7711563050429738e-01  1.4931449889993786e-01  1.0793158575755774e-01  8.9941994811928744e-02  1.8896549265132059e-01  2.0419746917480627e-01  1.8692441918059882e-01  1.3250638088506811e-01  1.1827863973686742e-01  1.4984678741337243e-01  3.0220000244633720e-02  3.8439375070461912e-02  2.9542399040154121e-01  3.1059616052034689e-01  7.9226587515057914e-02  6.2844422691237606e-02  5.3057362695438322e-02  1.2760302934549390e-02  1.1933510326081635e-02  3.2914885684432754e-01  3.3319189110012587e-01  3.0886683176361274e-01  1.5691929105334521e-01  2.0709635828040548e-01  1.8040449523688953e-01  1.8028838678102257e-01  2.3650000860406631e-01  2.5389044478225598e-01  2.9666786669782852e-01  3.0683475222370221e-01  2.2054432266449250e-01  2.3762545315235550e-01  2.2653005479569316e-01  2.3220664351327566e-01  2.1931451574232916e-01  1.4735831419254877e-01  1.3346706003134740e-01  1.1907625080677146e-01  1.3267143816753008e-01  1.5519500721164428e-01  2.1850086225470350e-01  2.0602049552070084e-01  0.0000000000000000e+00  1.3154570645716183e-02  1.2637667841909358e-02  0.0000000000000000e+00  1.1680276595341909e-02  5.0525803785713114e-02  3.5143206445085215e-02  2.6283708395572997e-02  1.0001152910477551e-01  9.5997149627841685e-02  1.1533973603760163e-01  1.2559260288570942e-01  3.1408257895587495e-02  3.6844401272217268e-02  1.3778903277941340e-01  1.504883882