<?xml version="1.0"?>
<VTKFile type="UnstructuredGrid"  version="0.1"  >
<UnstructuredGrid>
<Piece  NumberOfPoints="785" NumberOfCells="1485">
<Points>
<DataArray  type="Float64"  NumberOfComponents="3"  format="ascii">1 0 0  0.9510565162951535 0.3090169943749474 0  0.8090169943749475 0.5877852522924731 0  0.5877852522924731 0.8090169943749475 0  0.3090169943749475 0.9510565162951535 0  6.123233995736766e-17 1 0  -0.3090169943749473 0.9510565162951536 0  -0.587785252292473 0.8090169943749475 0  -0.8090169943749473 0.5877852522924732 0  -0.9510565162951535 0.3090169943749475 0  -1 1.224646799147353e-16 0  -0.9510565162951538 -0.3090169943749469 0  -0.8090169943749476 -0.587785252292473 0  -0.5877852522924732 -0.8090169943749473 0  -0.3090169943749476 -0.9510565162951535 0  -1.83697019872103e-16 -1 0  0.3090169943749472 -0.9510565162951536 0  0.5877852522924729 -0.8090169943749476 0  0.8090169943749473 -0.5877852522924734 0  0.9510565162951535 -0.3090169943749476 0  0 -1.110223024625157e-16 0  0.4510565162951535 0.2298247742126793 0  -0.07919222016226819 0.5 0  0.4217401972019558 -0.2701752257873207 0  -0.4664690173352599 0.1823899734948475 0  -0.3579604780797941 -0.3579604780797938 0  0.08947756573959761 -0.564939116217821 0  0.2920115546147195 0.5731049448157398 0  -0.6379736825905938 -0.1331202236553083 0  -0.5008003933374412 0.5008003933374412 0  0.6995191145456661 -0.1107929434536306 0  0.142039521920206 0.2787682579175257 0  -0.3334887362273707 -0.6545084971874736 0  0.1245525093718384 -0.2698283057066694 0  0.394121195831843 -0.5736904951771631 0  -0.3634291792402099 -0.07798855321373677 0  -0.7398752304198022 0.1266395525571908 0  0.5513406906673669 0.5513406906673668 0  0.06772072383772594 0.7330026833223602 0  -0.1798257626464556 0.2277898049615374 0  -0.1329363554971779 -0.2250241225826161 0  0.2899847546250717 -0.01159061002844763 0  0.7178334616361693 0.1634954202353548 0  -0.185558029016192 0.7298829572732783 0  -0.5575821515891235 -0.5237174003589158 0  0.6636796672438613 -0.3700844779107332 0  -0.1473869834727682 -0.4898672660924318 0  -0.1245776731282009 -0.7865524724078699 0  -0.7047576755565585 0.3676611205918164 0  -0.7200632558821398 -0.3535872110403818 0  0.1059826075223748 -0.795065377569524 0  0.8800367553350505 0.4484011233337103 0  0.623199147317663 0.3525294878401746 0  0.5129820594521588 0.01406716385861899 0  -0.2901427146123197 0.4232796753639339 0  0.6984011233337102 -0.6984011233337104 0  -0.4012649964410931 0.6952739930058706 0  0.2729833322899929 -0.4096530452196732 0  0.3012581447838918 -0.7510272980442365 0  -0.8137027520495476 -0.05218979815199046 0  0.4331943037813432 0.6994662051624437 0  0.4096672220709169 0.4191323268585566 0  0.1043321860738427 0.5471012642541169 0  -0.1964715282981352 0.02977353470457396 0  0.2552131475805349 0.7680603542530016 0  -0.5388598112947428 -0.3431837635368604 0  -0.5797382542202413 0.03959248166636803 0  0.009584998068538048 -0.4058038127633932 0  0.1545084971874738 0.9755282581475768 0  0.4973115362790197 -0.4300662553549759 0  0.5658689724588636 -0.5882049478260758 0  0.2422046756816651 0.4131071900577793 0  0.7836508779194769 0.3146499317110243 0  -0.1545084971874736 0.9755282581475768 0  -0.06024135378981482 0.8388279256599832 0  0.8224179041086225 0.01875666381115074 0  0.9755282581475768 -0.1545084971874738 0  0.1492029128681321 0.09954782333993309 0  -0.007766320725004716 0.1830271833708655 0  0.3053451802085407 0.1526019885243211 0  -0.008583573074307321 0.3493769050054867 0  -0.2248586819964352 0.5721497532038938 0  -0.6984011233337102 0.6984011233337104 0  -0.6608599644184795 0.5232054702963955 0  -0.4379831721234783 0.3465173839916844 0  0.78947533516742 -0.2553493950128032 0  0.5377785018220788 -0.1506580215248616 0  -0.4377018126721021 -0.2194786956927773 0  0.9755282581475768 0.1545084971874737 0  -0.8135818870758709 -0.2173971224509217 0  -0.8800367553350507 -0.44840112333371 0  -0.8800367553350504 0.4484011233337104 0  0.8800367553350504 -0.4484011233337105 0  -0.6984011233337104 -0.6984011233337102 0  0.6984011233337103 0.6984011233337103 0  -0.4484011233337102 0.8800367553350505 0  -0.4484011233337104 -0.8800367553350504 0  0.1545084971874735 -0.9755282581475768 0  -0.1545084971874739 -0.9755282581475768 0  -0.9755282581475768 0.1545084971874738 0  0.4484011233337103 0.8800367553350505 0  0.4484011233337101 -0.8800367553350505 0  -0.9755282581475768 -0.1545084971874734 0  -0.3127199235709721 0.1392534573254163 0  -0.005479567850930206 -0.6874046165737091 0  0.2732479409242113 -0.1829771259830817 0  0.1418810278893715 -0.0836379635813527 0  0.004538992852202391 -0.15446060603175 0  -0.2853499925602263 -0.2239500765044786 0  0.4567744071463516 -0.7194815091863737 0  0.2407354298475123 -0.6063519260829316 0  -0.6189916801537911 0.2320956117698647 0  0.6914879155064673 0.4896037129438954 0  -0.1790968367221579 -0.6415245347002975 0  -0.3212528653011592 -0.8027825067413136 0  -0.4953997049317194 -0.6745488295647377 0  -0.3019794247314472 -0.5026245467723092 0  -0.5503379494258648 0.6488635672452867 0  -0.1526806950398258 0.3736888875971234 0  -0.3677221816356187 0.5553972409288912 0  0.4114570176646632 -0.08544454673099088 0  -0.3115221870742588 0.2814617094129646 0  -0.5055096840583726 -0.08161026592659262 0  -0.4207091841266609 0.04992126597993612 0  0.8394524656852788 -0.1204728868496304 0  -0.8092094227335564 0.2598108991006964 0  0.323275210824397 0.2948523260610789 0  -0.01235717006850368 0.6206762832191056 0  0.5723120307309651 0.1478612873198991 0  0.6584453108854001 0.0296143784812711 0  -0.1127073123157568 -0.08060902155425154 0  -0.3263472417314189 0.8127807834423398 0  -0.5693189598496932 0.3829729594944991 0  0.1787115426866188 0.6583053932958268 0  -0.2086945469431951 -0.3537063371349133 0  0.1413875674469653 -0.4006527365317505 0  -0.8825665179032465 0.06059258382501253 0  0.644423923763579 -0.2353002930398254 0  0.6873112429813564 -0.5116720902927442 0  0.5622403797493952 0.6812145165111156 0  0.4206022107082307 0.5494267599564201 0  -0.6985923484076459 -0.4957346960056245 0  -0.4275853811955493 -0.5583578671446736 0  0.1085975446525227 0.4135614629143593 0  0.8462315462026486 0.146118149748369 0  0.0718775524803872 0.8683064513691334 0  0.2157671749860278 -0.8623003278851888 0  -0.0009650574677971344 -0.2802933617576216 0  -0.6918203030037906 -0.01878988057032068 0  -0.2381679848617855 -0.08884164997446616 0  0.423770719651625 0.1052277906161352 0  -0.04008614995957274 -0.5625247949542947 0  -0.1838372862262216 0.8544504343113826 0  -0.06228883656410056 -0.8932762362039349 0  -0.2167973337515742 -0.8688044943515117 0  0.5422127886147651 -0.3110393647923049 0  -0.08715913041914175 0.08797997509234301 0  -0.4554204244795622 -0.4363932914340152 0  -0.8358691411028879 -0.3329048731086893 0  -0.696161304464804 -0.2369706844702208 0  -0.5584023614893824 -0.2239903645074836 0  0.1899841503682763 -0.7125800017390629 0  -0.7645428941125212 0.4685002778378229 0  0.06385263338978434 -0.9031496607807421 0  0.1885230304214117 0.8638639632561416 0  0.7840064636769384 -0.375682112498297 0  0.20078000365488 -0.4988085223509479 0  0.3065188648271355 -0.2963540786387833 0  0.3818589112326135 -0.4559984283196847 0  -0.3101348374984462 0.02265782905399914 0  -0.09274097508423339 -0.3512064167914866 0  -0.6034356931010622 -0.6308547114517774 0  0.5306709666442585 0.4314779253418129 0  -0.04412882481905579 0.7280335190386622 0  0.368139879099501 0.7958703882135997 0  0.5664333444162233 -0.6996425847768714 0  -0.6116455351171063 -0.4268731036572567 0  -0.4025747561849136 0.4508638281790917 0  -0.2867957698889448 0.6713445967088895 0  -0.4986338823410387 0.7454077904527141 0  -0.1197223386227034 0.6012931190607056 0  0.6019841841703942 -0.0631137624285925 0  0.4793630357317586 0.335191930278104 0  -0.4057080951926841 -0.7351100538182147 0  -0.2500487025609878 -0.7222647261547557 0  -0.5202389861383073 0.2762579513581566 0  -0.004903510438664035 -0.7983375068467664 0  -0.8677303216271283 0.1682446337113246 0  0.9632923872213652 -0.2317627457812107 0  0.6359382133354268 0.2407019555277372 0  -0.1954327480994572 0.4704960404955171 0  -0.09318292723014725 0.2871443445734201 0  0.6543968779059033 0.5953449360951739 0  0.5860085732792212 -0.4855437761655895 0  0.02433540313127336 0.477708088704549 0  0.2050327353918737 0.1915327024870737 0  0.3019600516521567 -0.5224112525625693 0  -0.4559197183044352 0.6082074424089278 0  0.9877641290737884 0.07725424859373685 0  0.8445268748549989 -0.5180931878130919 0  -0.7537090588543289 -0.6430931878130917 0  -0.8115083307004233 0.366542657984397 0  0.9877641290737884 -0.0772542485937369 0  0.3157389177020913 -0.8506306959163319 0  0.3661954416712823 -0.6720495099691162 0  -0.2110888953948772 0.1307100872489919 0  0.2771278415803478 0.671246208704549 0  0.7755166821205643 0.4221168689217691 0  0.09258535306910454 -0.6974063904331503 0  -0.5180931878130919 -0.8445268748549989 0  -0.5636233828952756 0.1431321340909777 0  0.2093668298544761 -0.3254094489515746 0  -0.7452216441755674 -0.1347434040272279 0  0.3432419291961207 0.4903131612096761 0  0.9632923872213652 0.2317627457812105 0  0.8654704589902047 0.2558653845079852 0  -0.7721646645307192 0.03531578018689553 0  -0.9877641290737884 -0.07725424859373664 0  0.3972451269157145 -0.7968729007064921 0  0.2047656419391337 0.5125131148681941 0  -0.7107486842465451 0.2689580543411794 0  -0.8747057134039039 -0.1348381340198916 0  0.9075822029513861 -0.02495856901956285 0  0.4175383422250996 0.009896499472273557 0  0.1611803648706316 0.7520641323258265 0  0.293383900196892 0.8562452162748729 0  -0.9632923872213652 -0.2317627457812101 0  0.4226327034146973 -0.3675580274712185 0  -0.6211574309532173 -0.2954782403839667 0  0.5073765864410278 0.7586347332656206 0  0.3688379632316558 0.6293192053628369 0  0.484958551257918 0.6195737597560269 0  0.08576045253602423 0.639999587219085 0  -0.8445268748549991 -0.5180931878130914 0  -0.7797212151374868 -0.4352936457408597
[...]
<PointData  Scalars="f_1261-2"> 
<DataArray  type="Float64"  Name="f_1261-2"  format="ascii">0.0000000000000000e+00  0.0000000000000000e+00  0.0000000000000000e+00  0.0000000000000000e+00  0.0000000000000000e+00  0.0000000000000000e+00  0.0000000000000000e+00  0.0000000000000000e+00  0.0000000000000000e+00  0.0000000000000000e+00  0.0000000000000000e+00  0.0000000000000000e+00  0.0000000000000000e+00  0.0000000000000000e+00  0.0000000000000000e+00  0.0000000000000000e+00  0.0000000000000000e+00  0.0000000000000000e+00  0.0000000000000000e+00  0.0000000000000000e+00  1.7069508515849365e+00  1.0929292227178962e+00  1.0896188858736393e+00  1.0990922257527014e+00  1.1014619065667122e+00  1.0919324527386665e+00  9.4488262692130098e-01  7.8445503344346346e-01  7.5875021087032235e-01  6.2843362774088807e-01  6.2541703894541090e-01  1.4560362853899016e+00  5.6986307609136178e-01  1.4738277643137054e+00  6.5989723238279419e-01  1.3549378327355155e+00  5.3105886212395248e-01  4.5939975500537195e-01  5.6716485967794295e-01  1.4845352546353874e+00  1.5254910551869165e+00  1.4863568260833422e+00  5.6197064831463805e-01  5.3042946686482306e-01  4.9609200243806689e-01  5.0802013776233945e-01  1.0752581569665189e+00  4.2601297012712974e-01  4.2550383571284917e-01  4.2067394003288427e-01  4.0914417567484962e-01  0.0000000000000000e+00  6.1483581754778793e-01  1.0780072053557095e+00  1.0765445938193572e+00  0.0000000000000000e+00  4.1850243498597678e-01  1.1195142015644488e+00  3.9762072500009643e-01  3.8419289084655200e-01  3.6947825128751260e-01  9.1414615294811430e-01  9.8310015500450043e-01  1.6001608328900234e+00  3.9791268134110908e-01  7.9633655763589684e-01  9.2916882952461921e-01  1.2904958968150386e+00  0.0000000000000000e+00  7.5376145241703818e-01  3.9354161598423959e-01  1.1459553190971048e+00  3.1690205100407359e-01  0.0000000000000000e+00  3.2683395271340510e-01  3.6526278420066932e-01  0.0000000000000000e+00  1.6180181613669264e+00  1.6179170969058247e+00  1.4074592923990612e+00  1.3930305601928565e+00  8.5254745845444158e-01  0.0000000000000000e+00  3.2309997705554855e-01  9.7958799221431669e-01  3.4889999753664119e-01  9.7579355872631268e-01  1.1269497401234669e+00  0.0000000000000000e+00  3.2344103945273078e-01  0.0000000000000000e+00  0.0000000000000000e+00  0.0000000000000000e+00  0.0000000000000000e+00  0.0000000000000000e+00  0.0000000000000000e+00  0.0000000000000000e+00  0.0000000000000000e+00  0.0000000000000000e+00  0.0000000000000000e+00  0.0000000000000000e+00  0.0000000000000000e+00  0.0000000000000000e+00  1.4031111138385992e+00  6.8035520541938521e-01  1.4249366685448537e+00  1.6340032556389668e+00  1.6401981545114348e+00  1.3712230651241606e+00  2.9905518703248679e-01  7.6295617004189364e-01  7.4660637449151068e-01  3.1334786696264455e-01  7.3195413594951486e-01  2.6969237473510715e-01  3.3871345031024730e-01  9.1378546396745619e-01  3.0169560197121104e-01  1.2967258702141520e+00  7.2872220431656032e-01  1.2675882087659462e+00  1.2673197525900994e+00  1.0811344317353977e+00  1.2587255797789376e+00  2.9772089065111312e-01  3.0041182055633797e-01  1.2292952687130729e+00  8.3737317918441412e-01  9.0618595695655935e-01  7.4918309997680177e-01  1.6554659105522482e+00  2.4222300797485677e-01  6.8218376215728205e-01  6.9085335431404338e-01  1.2832956602656727e+00  1.2548771766392379e+00  2.1976932239983799e-01  6.8467600869297418e-01  2.9519495022984771e-01  2.3071761737883592e-01  6.7064550003225099e-01  2.9099257112803112e-01  6.4570979888514712e-01  1.2508713498097805e+00  2.7782347302755378e-01  2.6057368086963723e-01  2.1485113346956988e-01  1.4967804233009472e+00  6.7342432764101678e-01  1.5366017879425375e+00  1.2341811824133206e+00  9.6360168348564768e-01  2.4869644285706777e-01  2.0741908110447493e-01  2.0282135540716212e-01  8.2163556913102309e-01  1.6656808810944002e+00  8.1519695698422223e-01  1.9982656508074698e-01  5.6601237449404773e-01  8.7903262382647840e-01  5.6462792971724907e-01  2.0182434269922159e-01  1.8302625049055607e-01  2.3100910345920730e-01  2.5182774774041600e-01  1.0220839352954914e+00  1.2500201216857634e+00  8.9861134905409412e-01  1.4543339085830449e+00  1.3665842644481430e+00  2.4618281248445245e-01  6.8881123000791278e-01  5.8440812003076825e-01  2.4583865258171073e-01  1.9709498875437911e-01  5.4388749912284151e-01  8.7457677829527458e-01  5.8447526666891692e-01  2.0003723559771666e-01  8.5205386384821280e-01  8.6819857948248991e-01  9.2246939430830788e-01  3.3204876521260657e-01  5.0737763860092211e-01  9.1002574157244398e-01  4.1969488275615319e-01  2.2021032477830013e-01  0.0000000000000000e+00  6.9794570580341730e-01  1.0864428347528239e+00  1.4678822241642890e+00  2.2181726015207878e-01  5.1358137946950977e-01  1.1525186507821439e+00  1.5014084701751649e+00  8.7502609449134794e-01  5.1422674255557610e-01  0.0000000000000000e+00  0.0000000000000000e+00  0.0000000000000000e+00  2.0398356311465321e-01  0.0000000000000000e+00  1.7900570428535645e-01  4.9714938384324353e-01  1.5422266987099047e+00  5.9395920574824590e-01  2.2332246469747608e-01  6.4286804942487674e-01  0.0000000000000000e+00  9.2665908166871758e-01  1.3254966278040250e+00  5.1728588022216537e-01  8.8517908265558198e-01  0.0000000000000000e+00  1.8666034244086005e-01  4.7725303342422493e-01  0.0000000000000000e+00  2.1634541405041949e-01  9.8942294378169127e-01  5.0901565864900222e-01  2.1520282430800675e-01  1.7631170523995895e-01  1.2722505171374985e+00  4.8809097843678118e-01  1.8667005133060771e-01  0.0000000000000000e+00  9.7239357549760297e-01  6.8726350993153329e-01  1.7226312277866807e-01  5.8707994714535938e-01  4.5118361920858840e-01  7.7763603771904832e-01  0.0000000000000000e+00  2.0365278517855945e-01  0.0000000000000000e+00  2.0447212189385308e-01  1.5992433507319233e+00  8.9253266362157480e-01  8.7742839277886009e-01  1.1496814472665526e+00  2.1470533968815286e-01  1.2471591408280871e+00  1.2663387647392912e+00  1.6096741588595409e+00  1.6818733865137461e+00  1.6701906643636908e+00  1.5805953454256898e+00  1.5249297490157501e+00  7.5292061367114549e-01  8.7322806948720111e-01  1.3201400523378259e+00  1.0029662475819550e+00  1.6778194059092905e-01  7.6866866287837499e-01  2.0361062029977522e-01  4.3344822751683265e-01  0.0000000000000000e+00  7.7215781876675293e-01  4.7275210076405122e-01  4.8747257624294532e-01  1.1105565500236314e+00  1.2184801139848827e+00  1.4028604933611251e+00  1.5913779716073957e+00  1.5151991270491425e+00  6.1515442933876718e-01  4.5323077840735776e-01  6.6108377615167957e-01  1.3909261945234637e+00  1.8139451518826938e-01  1.1074087154060424e+00  2.1241864220039514e-01  2.0347087119659948e-01  3.8935846884582764e-01  5.2074747843591596e-01  1.1098453730702262e+00  1.2761771799896158e+00  1.5052606643469539e+00  1.4201402071073046e+00  1.5449995746883276e+00  1.5131797865370122e+00  0.0000000000000000e+00  1.6856111182046785e-01  1.9118771452723504e-01  4.8567470586497513e-01  1.0820009292824211e+00  1.6833928736290154e+00  4.8965560941423486e-01  5.3983920865987833e-01  0.0000000000000000e+00  0.0000000000000000e+00  1.0552057734254310e+00  1.5263575744117042e-01  0.0000000000000000e+00  4.2222258210264335e-01  1.2717320097978471e+00  9.3353708352699127e-01  2.0336684731156590e-01  7.8372312557738977e-01  1.0984456788357930e+00  1.0918641319723932e+00  7.8501831938297850e-01  9.9017841797676143e-01  1.2729734912365227e+00  4.1933067704651233e-01  1.7957406413718766e-01  4.3481278062445855e-01  1.4152570963139661e+00  2.0213516543168469e-01  1.4823633363798475e-01  3.8607320205467044e-01  5.0715473236679387e-01  1.2521586871848398e+00  1.6830784910558707e+00  0.0000000000000000e+00  9.1508361009295736e-01  5.5313291164673284e-01  0.0000000000000000e+00  4.1972419444742004e-01  4.9893026594280643e-01  4.2356404626131255e-01  9.1276545742847515e-01  7.1056362523425698e-01  6.7085624389314658e-01  1.0858022873170512e+00  1.2291213233922564e+00  1.5497619628953171e-01  3.7878690595609660e-01  7.1901377876940453e-01  1.0952915296128560e+00  0.0000000000000000e+00  1.3968187115538471e+00  6.1715265591886426e-01  6.2652668684152402e-01  1.1835486701328548e+00  1.2027001659528660e+00  1.4343399993198545e+00  1.0785318264952608e+00  1.3736502566805256e-01  4.3101686389323896e-01  1.6978440382671858e-01  1.7430265609246950e-01  3.7310014778957101e-01  1.3767543139361944e+00  0.0000000000000000e+00  5.8028539262073697e-01  7.0120371844183815e-01  1.5453096730789512e-01  6.9291128531466095e-01  0.0000000000000000e+00  0.0000000000000000e+00  0.0000000000000000e+00  0.0000000000000000e+00  0.0000000000000000e+00  0.0000000000000000e+00  0.0000000000000000e+00  0.0000000000000000e+00  0.0000000000000000e+00  0.0000000000000000e+00  0.0000000000000000e+00  0.0000000000000000e+00  0.0000000000000000e+00  0.0000000000000000e+00  0.0000000000000000e+00  0.0000000000000000e+00  0.0000000000000000e+00  0.0000000000000000e+00  0.0000000000000000e+00  0.0000000000000000e+00  2.3903450075557672e-01  1.4191742747557806e-01  1.0302004117999779e+00  1.1462395998892259e+00  1.0599746839115114e+00  7.6245342461620402e-01  8.0534511821856636e-01  5.4646053891720658e-01  6.0850527481950156e-01  1.2807640112149254e+00  1.0702552816340611e+00  9.1710957099128509e-01  1.6205776711207018e+00  1.6860990876667863e+00  1.6548550290236483e-01  1.2794681424076615e+00  1.2623704934739581e+00  1.4087557746464847e+00  3.8114277262815222e-01  1.3851946860364535e+00  9.9418553659320763e-01  1.6578493451443446e-01  3.3581271170859744e-01  3.9115402094920271e-01  1.2257444368411211e-01  4.3205143468306162e-01  1.3891123516653374e+00  8.2650689346364936e-01  1.5494138462652243e+00  1.4064957384522511e-01  9.7941401516095228e-01  1.3429077822111207e-01  1.5707483046849868e-01  3.9770517932913640e-01  4.1261607417578877e-01  1.5180020472729283e+00  1.2911572238717060e+00  6.4357976972234532e-01  9.9409629133175725e-01  7.3259147039305628e-01  7.1698781026123304e-01  6.5617464486554200e-01  9.3011138571286289e-01  8.3008025159247112e-01  1.6050348752643293e-01  1.5545458215440435e+00  7.7499034431573122e-01  1.5087104611494317e-01  2.1398709899982674e-01  1.3999486239716714e+00  7.4503736330629367e-01  5.8988998086770750e-01  6.7322038483486590e-01  3.6982455556105659e-01  4.0186113132739937e-01  3.5812518504965629e-01  3.5699557244718938e-01  4.4496027768396401e-01  3.5019697206454165e-01  1.6339187033252534e-01  5.5475165866193332e-01  1.1445284591546758e+00  1.3716641153761582e+00  9.2493076780396921e-01  3.5323277887646426e-01  5.5835402643667487e-01  1.6872009192506923e+00  4.6966675664528856e-01  6.3596397414307926e-01  5.2655938884635423e-01  3.7579979735775937e-01  9.9756402165389813e-01  9.0297683184507194e-01  1.3155045878729692e+00  8.9295103444468893e-01  1.3520896344558901e+00  1.5314587658843020e+00  1.2469478876595343e+00  1.6132591065976105e+00  7.2457876003867150e-01  3.1958997534326822e-01  9.5256373574710129e-01  6.8055128139557086e-01  8.0442918493284421e-01  1.5236708799401016e-01  3.1949896794015298e-01  1.3792597460399063e+00  1.1848107201797395e+00  5.4135905334896794e-01  8.5003329828753271e-01  1.1256101744207698e+00  6.7623976448225154e-01  1.3165256010440599e-01  1.3643670469999942e+00  1.1740056467143531e+00  1.0651832799020622e+00  1.3539838763989101e-01  6.6068175016951869e-01  1.5896923224081292e+00  5.7531739283117467e-01  8.3484873810199078e-01  6.4219433792873182e-01  5.4863799127403923e-01  1.4454126155225330e-01  1.1146225487108112e+00  1.3140225949048330e+00  1.5769130431906997e-01  1.5101890484226779e-01  1.9762126644162017e-01  1.5372069946986555e+00  1.5261169523287643e+00  9.5364643760064638e-01  1.3238864141335305e-01  1.3069257604848797e-01  3.4504359301848742e-01  7.7267619368465790e-01  1.3668651809628702e+00  1.2175952780793637e+00  1.2395788540978019e+00  1.1946177784080372e+00  1.3551547344961648e-01  1.2766337575042117e-01  1.6059832824016704e+00  7.2259211289958913e-01  5.7342771796271674e-01  3.7682030636468261e-01  1.0670243501388442e-01  3.2014026958968544e-01  7.6527306469687406e-01  1.4198215971206216e-01  1.1162250021272768e+00  8.2569227766360964e-01  9.6445013748801034e-01  1.0742557434580389e+00  4.2616803151091553e-01  4.4587627546557274e-01  5.2444284730419111e-01  3.8362195853968506e-01  4.6182413635488517e-01  1.3230863990717148e-01  3.1738975912312539e-01  1.1006681721724602e-01  3.6880052306139172e-01  3.9312090240317810e-01  1.0283692731219853e-01  9.3473343838290013e-01  1.4486257973371923e+00  5.3754986691191464e-01  9.6695040251145378e-02  1.1512145935761180e+00  7.9646292960889720e-01  6.6855604865200391e-01  1.2559611472509605e-01  6.5569649716399780e-01  1.5426862469586962e+00  2.6637561080173006e-01  1.2491728223410627e-01  9.9935844906893043e-02  7.6000673918994921e-01  3.2819899783999035e-01  1.3796915457201824e+00  1.4009973509775402e+00  8.7577548668639560e-01  3.3582121967135464e-01  3.7844088968089729e-01  1.4677686626863862e+00  7.3071115429395261e-01  7.4721923069700946e-01  8.4762093495018520e-01  9.5578565277527761e-01  4.4483694116259670e-01  7.5723097413469997e-01  1.0604747341808188e-01  1.3799321283732410e-01  1.1708976526483992e+00  1.3359306268896849e+00  1.4293766518506534e+00  1.6418105383322457e+00  1.6477917711530963e+00  1.1266934697212837e-01  1.3379281727498954e-01  3.3872158910004491e-01  9.8610303531470433e-02  3.4625478011525812e-01  1.1699519744057588e-01  1.2523908109256066e-01  8.1152089341876243e-01  1.6482023295532371e+00  1.4819636457643984e-01  1.4196616555816199e-01  8.2941679270340740e-01  6.0746287006484612e-01  8.1878052393716871e-01  1.1986374463524703e+00  1.0273607006511263e+00  8.5813272556259412e-01  2.0370537115094947e-01  1.6880810583852024e+00  7.2304390264881302e-01  3.5386229529217961e-01  1.4009259584097239e-01  1.2961862983546618e-01  1.0621603243040243e+00  1.5791253779620482e+00  1.3463926285511527e+00  3.1097304249222329e-01  1.2836537900939688e+00  4.9596462082783715e-01  4.5085732514842675e-01  6.6707981419014650e-01  4.6668584046575556e-01  4.4133553423606819e-01  7.6380170385144119e-01  9.7735918629520946e-01  1.0299034208114519e+00  8.2091720157371137e-02  1.3528023777035267e-01  1.1808757907112104e+00  8.5479245593155151e-01  1.4273150554369824e+00  1.0003896518354065e+00  3.3485655600100261e-01  6.4423071876333637e-01  4.9391951015403851e-01  2.7148811268969492e-01  8.5917670014546518e-02  3.0127772914308792e-01  1.1866538237273510e+00  4.2346320705143115e-01  1.4512625252467271e-01  1.3020649930595984e+00  1.4011256914034731e-01  4.3447953887082125e-01  2.8469475501060920e-01  1.1093031489462006e-01  5.8811520770708536e-01  7.1015687653416903e-01  1.1038682149104853e+00  2.8307146959509372e-01  2.6683337187101364e-01  1.3696285094534252e-01  2.9778680102556992e-01  3.8612894586957436e-01  2.6959615299032774e-01  5.4927156507995956e-01  1.5746941999922308e+00  3.6154344125348203e-01  1.3632070818490374e-01  1.3350443397931575e+00  1.3921791457562754e-01  1.5844378052826551e+00  1.1447739298901285e+00  1.2055353743086938e+00  1.1945457393475570e-01  8.0523525131710361e-01  3.6487098721802685e-01  1.0028774799769009e+00  9.7548535552595128e-01  1.2292847864148512e-01  1.1393494535675126e+00  8.8980391938560177e-01  1.5798329441149755e-01  6.5870290551863286e-01  1.6635802265131208e+00  1.3451044768932421e+00  1.1498601641875068e-01  1.5100037711945991e+00  1.0625086715721244e-01  6.6671664640824591e-01  1.1730398169752110e+00  1.6743072759600190e+00  2.6760154825186472e-01  6.0054930019589770e-01  1.1878409589637040e-01  4.6050723245683545e-01  4.3178876666572857e-01  2.5190729257002664e-01  7.7136442275882566e-02  2.8105398388189368e-01  2.9536747907212507e-01  1.1655475572968186e+00  1.4418254430475796e+00  4.2354903524678505e-01  5.6714230599811821e-01  6.7620747230826006e-01  1.0419653866505592e+00  6.1873615278513583e-01  5.0225825806525703e-01  2.7052486276419685e-01  1.2587215115818159e-01  1.6017500463353636e+00  2.1792181060411378e-01  1.4661515177801516e+00  9.4174786421877632e-01  1.6559053078080725e+00  9.7204666042542798e-01  7.6365392906687113e-01  8.1039903320865581e-01  5.5057900753253963e-01  1.2928259011639609e-01  9.5155977117836382e-02  2.8058886340432676e-01  9.8745790227116312e-02  6.5995383778562811e-01  8.8073618801445408e-01  1.0155726394607463e+00  9.2757280994217972e-01  7.9092961618843971e-01  8.7043011327081188e-01  0.0000000000000000e+00  2.3669794870207586e-01  2.3802822120605563e-01  2.9130168713176824e-01  7.6024124669135162e-01  1.2922269395995972e-01  1.0073283676376601e+00  2.9964539001070239e-01  2.9879029832457882e-01  4.5299359344888496e-01  9.9995691496959238e-01  4.6474969020078144e-01  5.3610141108986586e-01  9.5873394725628547e-01  1.0534817825398752e+00  2.5528785103176271e-01  2.3973758887304542e-01  1.5420501793936801e+00  1.5706569206597785e+00  1.4680451231144676e+00  1.5533076612102732e+00  9.8950648180327483e-01  7.8746041827100405e-02  1.5883561910671242e+00  1.6415911008947233e+00  1.6570591396329239e+00  1.6264734398558438e+00  4.0380729204109045e-01  9.8904295109916451e-01  1.0839940886349346e-01  5.9158949290514484e-01  1.3788393459163597e+00  2.5198607703200282e-01  2.6464480948990249e-01  8.0927550094166356e-01  8.6063257917788349e-01  8.7817056431051577e-01  3.0190589785277355e-01  6.2438158279229539e-01  1.0600101821988641e+00  1.2134151752086422e+00  1.0320909148628676e+00  9.5982915877933495e-01  5.6434067605126936e-01  7.9179251984422633e-02  7.7906423188363483e-01  3.8974506236795059e-01  2.3794875619167963e-01  3.4981553047840708e-01  1.1541396799238129e-01  1.3842185972371883e+00  1.4961227751588364e+00  0.0000000000000000e+00  1.0464711091734825e-01  1.2214917852454055e+00  9.6162947030453172e-01  4.0034672271748661e-01  1.5586256701146848e+00  6.5026435481128075e-01  1.4567272422106203e+00  5.6397999285436184e-01  4.7096009546295786e-01  4.8303988748911170e-01  1.5025148176595549e+00  8.2405812389364119e-01  1.4759112656412903e+00  8.6315694502653406e-01  5.3149242771513638e-01  5.1490940211881864e-01  4.5190008689826250e-01  1.4806721424079052e+00  2.9318015628805172e-01  7.7053009415904183e-01  5.6092207330147958e-01  1.6495790066928238e+00  5.8982524488655108e-01  1.6921209689356418e+00  1.4117834091878270e+00  7.1643292191231700e-01  6.6299164412039435e-01  1.4823586289243236e+00  7.9375878196924876e-02  7.7580743535938190e-01  1.5544565607701635e+00  1.6253134159678631e+00  4.6636831424043240e-01  1.2907649739549720e-01  1.1914381118418023e+00  2.7526587342658698e-01  1.2807697520119707e+00  2.5883450247037598e-01  6.6658208122998586e-01  7.4633144714425559e-01  3.0232196065272149e-01  2.9550563352742631e-01  1.5274154036854353e+00  2.7703009340870710e-01  2.5056230176622191e-01  1.0034586874622921e-01  8.7732542165023922e-02  1.5481437167768273e+00  0.0000000000000000e+00  1.2119994627304282e+00  6.5119067912811823e-01  1.5273655975297382e-01  1.3619308616352135e+00  </DataArray> 
</PointData> 
</Piece>
</UnstructuredGrid>
</VTKFile>