<?xml version="1.0"?>
<VTKFile type="UnstructuredGrid"  version="0.1"  >
<UnstructuredGrid>
<Piece  NumberOfPoints="1130" NumberOfCells="2134">
<Points>
<DataArray  type="Float64"  NumberOfComponents="3"  format="ascii">0.2924965119749844 0.5806454640576162 0  0.2931357425666441 0.6158095738938106 0  0.2722845889387188 0.5986007514407707 0  0.06245154218797691 0.7943760977968389 0  0.05544056292684415 0.8360220202702611 0  0.02724914271240671 0.7995232918838924 0  0.1335850646589621 0.7291917770211511 0  0.09257890860895016 0.7227107754768907 0  0.1207009360036598 0.6914172198262521 0  -0.1127572484929876 0.6217075882064447 0  -0.09059232536756107 0.6461457043336694 0  -0.08244382822329682 0.6193610233350183 0  -0.1373197942797624 0.4432044140746515 0  -0.1708498639144158 0.4258289329533242 0  -0.1683718478273803 0.4550768101836 0  -0.2097608088645187 0.2706029166526365 0  -0.2553472029916841 0.2715809926304027 0  -0.2391685209522224 0.2307322500123088 0  -0.2612214313441482 0.4860827085271667 0  -0.2999268493360679 0.4942668376827834 0  -0.2761784895078877 0.5087930656610014 0  -0.6336799748740927 0.5412138273049375 0  -0.6367242063828276 0.4943077948128051 0  -0.6623691907668592 0.5109580860210953 0  -0.8189328877697528 0.4225545775266913 0  -0.7732510673161435 0.420047019447516 0  -0.7972043328982701 0.4010362957246634 0  0.09400378958013947 0.2055695036858353 0  0.1290725919584871 0.2207698374846717 0  0.1219808629418566 0.1890773044854493 0  -0.4309945018733153 0.5062643786080123 0  -0.4382089257601645 0.5497266439837095 0  -0.4119159386366162 0.5339223899750409 0  -0.6227781113910986 0.4494196041151011 0  -0.6567942943576646 0.4640171858672734 0  -0.6481157979026415 0.4373082602627743 0  -0.4712405913227501 0.1677045787871355 0  -0.5101607540755746 0.1422745461243285 0  -0.4855314936343032 0.1275817475248843 0  0.2162525383925422 0.08615652924307352 0  0.2246786184519418 0.05722134459703598 0  0.1858331413839794 0.06712133478128747 0  -0.395297655555004 0.5597085933417444 0  -0.393845571583094 0.5930343773993745 0  -0.3703409314215836 0.5744126151601694 0  -0.1732844607114084 0.7831016787925337 0  -0.2042612800303741 0.7831655859422791 0  -0.1887231468431922 0.8072354228488953 0  -0.2401164734357646 0.7642938074902216 0  -0.2007050285273371 0.7523935126534872 0  -0.2268594363809904 0.7369868775014541 0  -0.1696450233376555 0.7253721306646218 0  -0.2085138894959716 0.7108694539094691 0  -0.4304447217574816 0.7500053130336214 0  -0.4315890123179937 0.7095731294438389 0  -0.4566159372858562 0.7305137127660739 0  0.2068741599965308 0.6805917788483005 0  0.2050805379439151 0.7234446339117643 0  0.2218709634298657 0.7011057471390761 0  0.2162993597616463 -0.05864296304509958 0  0.1750354584180112 -0.06241539112817548 0  0.193720732252597 -0.0392358669981461 0  -0.0230893327402 0.1929077709269967 0  0.004761282153553419 0.1841053551365959 0  -0.0294157900699326 0.1671086648702482 0  0.1565461142119031 0.6738661189577495 0  0.1462519036200293 0.703786842447927 0  0.1808354785713632 0.6837740099682186 0  0.003584375230144248 0.8973914042388084 0  0.004168520773651397 0.9265977742636927 0  -0.02260959360525044 0.8990907582775318 0  -0.5553672154460828 0.1314190645461342 0  -0.5235028484586995 0.1112039343107129 0  0.1603091172319885 0.1987437044449037 0  0.1587220491624921 0.2266983155339805 0  0.1814480564065501 0.2139661830238536 0  -0.1528819986293607 0.1263255869844637 0  -0.1492482924853433 0.1580573615581254 0  -0.121785890413324 0.1264951045251249 0  0.06840700246376145 0.1813414697793323 0  0.05901930246285114 0.213188864059535 0  -0.1752833856350064 0.2330884014058902 0  -0.1463494540489943 0.2498979671367919 0  -0.1597540380916604 0.2128762917837419 0  -0.2666080625010207 0.8166860089768937 0  -0.2708315979539392 0.7816567174515252 0  -0.3125666401907646 0.8078345074970555 0  -0.404120413395211 0.790596968601049 0  -0.3736980272227576 0.8094398659945521 0  -0.3782485212331815 0.783550436492126 0  -0.6302032721917927 0.1842725605598824 0  -0.6662816078013655 0.1849757094845715 0  -0.6278359119408464 0.1559995968664962 0  0.04697055465782802 0.07164191122244783 0  0.03568486653295815 0.02782254432188264 0  0.07147362760462897 0.03813006809902156 0  0.07629170137027992 0.001199503106725944 0  -0.08254551195616064 0.2442760807068146 0  -0.1256264531238477 0.2318577153827438 0  -0.1100359059370774 0.2587079641700211 0  -0.2057340115688616 0.336734776516796 0  -0.1583351405483 0.3413766438249081 0  -0.1746963906066072 0.2991947239182672 0  0.2069802702871247 0.2191319025157533 0  0.2277242868701167 0.1958518940723663 0  0.2327020808785168 0.2211695803373901 0  0.08377029897187802 0.3968728637950909 0  0.09430952409275566 0.3649796683197574 0  0.1096177565212272 0.4086602604886229 0  0.1993614565197579 0.6303751881642145 0  0.2183947193733605 0.602039791860232 0  0.2244999519515443 0.6267009039980487 0  0.2603645391142563 0.6285756014906578 0  0.09969329332901172 0.7636117992424346 0  0.1302396754667923 0.7597935550942527 0  0.3054091438189218 0.7866902927858057 0  0.3357122182608844 0.7742694490625159 0  0.3340932520791566 0.8018765332110196 0  -0.3419627731396465 0.7347283846920364 0  -0.3520950571293062 0.7809111428238701 0  -0.3692699615099612 0.7343393389683085 0  -0.5840098151137766 0.2990048577514015 0  -0.6080756186142645 0.3165493008588801 0  -0.5823578507234605 0.3265486810853542 0  -0.7051763504253612 0.250234969313039 0  -0.7068111699962591 0.2244295694172429 0  -0.7307168990284388 0.2554584211146595 0  -0.4836131513794496 0.6232288808042636 0  -0.4928484342320275 0.5960519446409566 0  -0.5117044153203884 0.6291244044274967 0  -0.4409287066533773 0.6702178123895151 0  -0.4738508613963038 0.6572424830600011 0  -0.4501566366006438 0.6453775654719015 0  -0.3429952027518596 0.5223588630033167 0  -0.3206329923626178 0.5503883121993246 0  -0.3685624877363587 0.5418514467512064 0  -0.3893699539648601 0.6237039937970631 0  -0.3422033714709892 0.6265868844716567 0  -0.3644188643635339 0.6027670761648919 0  -0.6575050454237221 0.2288298014079799 0  -0.6447641122924658 0.2516770218638512 0  -0.6798884378325298 0.2427667040117376 0  0.2579067442312717 0.4688983724209494 0  0.2888513267043814 0.4378317642069166 0  0.2515399520834085 0.4316117661101545 0  0.2722069355506832 0.8284688529037881 0  0.2642325312678823 0.8678131532115284 0  0.2341417510346148 0.8335977078735048 0  -0.609195381974423 0.1346104521165029 0  -0.581512774190834 0.1459772283855625 0  -0.606311706240823 0.1720374621998764 0  -0.1137242964947925 0.7342494510189826 0  -0.1085533329295061 0.7711569775053645 0  -0.08842803878944591 0.7495212997310273 0  -0.09035277733789798 0.4919220888235711 0  -0.1387502465387686 0.4915819350525998 0  -0.1147755671194965 0.5236308404416747 0  -0.08799438577573623 0.3012994251470535 0  -0.08054411621706016 0.273239330540436 0  -0.06068658392917529 0.3120024979569823 0  -2.220446049250313e-16 0 0  0.03833101908736652 -0.01236714587332863 0  0.03332211297248573 0.1779883120077971 0  0.0553878700818049 0.1568128372514456 0  0.03879512812050209 0.1013532927181565 0  0.01956592186948998 0.06947958240077355 0  -0.3110288607107251 0.08135098352660518 0  -0.344921080983376 0.08229130413897219 0  -0.328161300472874 0.05287969798319995 0  -0.08860505921103043 0.5920506521433744 0  -0.1159536089414161 0.590966322597226 0  -0.1021964897951705 0.6788144063269812 0  -0.136261090104428 0.700646753224388 0  -0.1228430025016362 0.6531026549154566 0  0.1415956346790651 0.6023153900601184 0  0.1455023681906896 0.561880690090387 0  0.173814985803951 0.5850222891851874 0  -0.7039359164953137 0.1054244296900993 0  -0.7241549932545398 0.08547378493790607 0  -0.7240317325936491 0.1290401816176439 0  -0.7146836516968359 0.3927695373773623 0  -0.7171931948150422 0.4336007787289713 0  -0.7460250674529035 0.4301448157942048 0  -0.8336681057691238 0.345316635927459 0  -0.8219806880639507 0.3831114868492926 0  -0.8020922577552831 0.3633132148152522 0  -0.5618738577248394 0.6403651441164777 0  -0.5473882199946626 0.6849348980099506 0  -0.538289355892541 0.6573388026093229 0  -0.4824797505496254 0.3838810792864338 0  -0.5230731684421793 0.3642691414098798 0  -0.5137211790366101 0.3967288418064787 0  -0.09386743165719327 0.8868230745198202 0  -0.1334231263863611 0.8942731301668522 0  -0.1092845443900445 0.9137012029455377 0  -0.04523581318749946 0.8244439404340452 0  -0.0769396102945519 0.7908921470434424 0  -0.09343945562699482 0.8132315912754917 0  0.0455101775939576 -0.1178143478783519 0  0.07525030372245567 -0.08800061275601394 0  0.04261815316074052 -0.08518924674757319 0  0.1424349288786705 -0.03683910833544325 0  0.1406428911848698 -0.004598908502305238 0  0.1639118323293636 -0.01947543299796284 0  0.1859045193885197 -0.1024004418516471 0  0.19058579448583 -0.1427680390589207 0  0.216883382856332 -0.1337619999027692 0  -0.2373028979847076 0.5473261424768866 0  -0.1932653732436898 0.5665479687088435 0  -0.2062682446319116 0.5362814988625322 0  -0.2126522817199431 0.3845511360064228 0  -0.1866730065200072 0.3639012639806355 0  -0.4174180203574351 0.2086894809925613 0  -0.4048848604657676 0.1820574049833631 0  -0.4464806129667586 0.1834083348043779 0  -0.4568841982408385 0.1262359142486632 0  -0.4313452580001016 0.1582968730533858 0  0.07231769945658416 0.5196157514494713 0  0.03312463406788048 0.5008840041940618 0  0.06513249352082014 0.4842812410161731 0  -0.0004027730160685861 0.7771386075583826 0  -0.03905074592193825 0.7819032022368267 0  -0.02332525375120641 0.8059095547793576 0  -0.2649860329145938 0.1824261056420857 0  -0.3041191825682435 0.1773695031720618 0  -0.2803378790137869 0.1428742985583878 0  -0.2687508696165652 0.1158982906339185 0  -0.2514827659916298 0.1482915158136655 0  -0.322899042696953 0.1999682459755028 0  -0.3484887776281561 0.1655499381999704 0  -0.3515501295523116 0.2070651371825604 0  -0.3903979979922381 0.1564355708354559 0  -0.9163492829346521 0.2448659195690242 0  -0.9192152205576599 0.2847796305242293 0  
[...]
<PointData  Scalars="f_2282-2"> 
<DataArray  type="Float64"  Name="f_2282-2"  format="ascii">2.7628946795128612e-01  2.5006047420969069e-01  2.7004437302669027e-01  1.5525188603764728e-01  1.2183188497230500e-01  1.5234628604943931e-01  2.0073358444401102e-01  2.1142525998860440e-01  2.3360485973768610e-01  2.9142588479272402e-01  2.7433609804817655e-01  2.9707098613890009e-01  4.2272808322943117e-01  4.2649478795633899e-01  4.0686831979853644e-01  5.0338230010188889e-01  4.8487890736239786e-01  5.0912622058781554e-01  3.5583874494613005e-01  3.3510416390445125e-01  3.3441434358061245e-01  1.2547769688120672e-01  1.4776171023673246e-01  1.2288882815301749e-01  5.6447474892410920e-02  8.8263738731966010e-02  7.8998508807682721e-02  5.6213527406437247e-01  5.4910444491128263e-01  5.6254531287875931e-01  2.6417892779984192e-01  2.3256855399138623e-01  2.5628546901245980e-01  1.7855621208562666e-01  1.4910456802882108e-01  1.6756630470970851e-01  3.9581617887712911e-01  3.7351129874397165e-01  3.9433699178088627e-01  5.5935125396565832e-01  5.5989759108911230e-01  5.7304829473762997e-01  2.4737083774210170e-01  2.2510782348201847e-01  2.4861680639055764e-01  1.5070544160314781e-01  1.4498792335903996e-01  1.2898697004734361e-01  1.5177558978298150e-01  1.6973447861678270e-01  1.7632775443994400e-01  1.9789009939161389e-01  2.0125775793267017e-01  1.0046078926757877e-01  1.2772528955021362e-01  1.0297883846379549e-01  2.2559768225814897e-01  1.9183973850699323e-01  2.0587573947976648e-01  5.6292401574597029e-01  5.7791965724044148e-01  5.7307478794370736e-01  5.7449654557351648e-01  5.7841172855379086e-01  5.8268847790934397e-01  2.4181331595598887e-01  2.1936491771728248e-01  2.2899028121504039e-01  7.4926724841681919e-02  5.2663475268370806e-02  7.3028813391420394e-02  3.4089538852763690e-01  3.6893374695091502e-01  5.4945597926242462e-01  5.3867669724526956e-01  5.3680092666313739e-01  5.7317803506963372e-01  5.6576294596540799e-01  5.8088634608322864e-01  5.7497774082587394e-01  5.6414956869903898e-01  5.3150912780474657e-01  5.3224583971430861e-01  5.4411455503818207e-01  1.0499436752392408e-01  1.3041088346192406e-01  9.9322992613213215e-02  8.2354498603456672e-02  7.9569088047826045e-02  9.6078163943038059e-02  2.7124993680486248e-01  2.4190057191901987e-01  2.7903293299525667e-01  6.0354642311291062e-01  6.0880823184135879e-01  6.0407205142637932e-01  6.0519555393364854e-01  5.4797169210969587e-01  5.4564840747304488e-01  5.3656674443861996e-01  4.7071309247711807e-01  4.8260325645017027e-01  5.0097351695358905e-01  5.2621356165962796e-01  5.2666259649004976e-01  5.1537724739054247e-01  4.6317442610468545e-01  4.8219565388076924e-01  4.5132805855328284e-01  2.6718045243639954e-01  2.8433459219273788e-01  2.6343426809939108e-01  2.5130255607107660e-01  1.7703173346887061e-01  1.7653987868941831e-01  1.1693627380429340e-01  1.1713956502861023e-01  9.7439268886015104e-02  1.4418278079545530e-01  1.0688872472481797e-01  1.3462527954998271e-01  2.7143009650451078e-01  2.4702697693511197e-01  2.6176190696533508e-01  1.9518589717721829e-01  2.0062325612497214e-01  1.7361559487443942e-01  1.6164729512122777e-01  1.7413681423013047e-01  1.4349188012976913e-01  1.5075083071510056e-01  1.4414614418270094e-01  1.6329489266597352e-01  2.9697894394164176e-01  2.8732680554723417e-01  2.7212457255083267e-01  2.0590336651425603e-01  2.2347550941601441e-01  2.3146261726466219e-01  2.3847263564156010e-01  2.4143471399897512e-01  2.1647891158178922e-01  3.6902936316698870e-01  3.7734801046199939e-01  3.9636874838710490e-01  9.4655046475821944e-02  6.7380727149115610e-02  9.9535578033267263e-02  2.9813595128090475e-01  3.1785226653973603e-01  2.9227989970242102e-01  1.9951513769167792e-01  1.6994900601379356e-01  1.8950930224184134e-01  3.9586275674375626e-01  3.8794391684865204e-01  3.6832170186935892e-01  5.1946640634217889e-01  5.3499848879805290e-01  5.1710628476006459e-01  6.1063069403938242e-01  6.0897912231504925e-01  5.7915130837633422e-01  5.8382317636486858e-01  5.9901717850481018e-01  6.0549952097239179e-01  5.1537085127854154e-01  4.9582837537595376e-01  5.0891173122743472e-01  3.1847730799473245e-01  3.1537611689980194e-01  2.4632854369161331e-01  2.2360518700292659e-01  2.6439649906395501e-01  3.0209222214353482e-01  3.3319914670245132e-01  3.0894042520073423e-01  2.2548633725414341e-01  2.1059100483260004e-01  2.0576141676736001e-01  1.3973692772388016e-01  1.2163124723398995e-01  1.0331529347895732e-01  7.1193807214131224e-02  6.7248200712264811e-02  8.8154324862827912e-02  1.1067387762704242e-01  9.1039188197318821e-02  1.1247377664732527e-01  3.0391446832812430e-01  2.8696412628678503e-01  2.7713515489786161e-01  7.9502027905183639e-02  6.9609179469549434e-02  5.7208794894217097e-02  1.3196047321052415e-01  1.5690582909953660e-01  1.3742869245983516e-01  5.9534215969446480e-01  5.9758980921183524e-01  6.0179515701950104e-01  5.8979956865182970e-01  5.9132153942491605e-01  5.8433494881608261e-01  5.6778040486732662e-01  5.5736073230707628e-01  5.4944404675329528e-01  3.2002272611971994e-01  3.1864153392981004e-01  3.3787013790516823e-01  4.4017161945025846e-01  4.6098161561321993e-01  4.2072995218735026e-01  4.3693215811656261e-01  4.0883401724788160e-01  4.1548812360374332e-01  4.2598931121691230e-01  3.7722089680939880e-01  3.9451922799656464e-01  4.0448852178098677e-01  1.7148024364898642e-01  1.6635992995358179e-01  1.4724157115353742e-01  5.1523466143114416e-01  4.9756714114651063e-01  5.1891399525817017e-01  5.3098593615580203e-01  5.3130294808829448e-01  4.8017704195945943e-01  4.7630275116934750e-01  4.6188405640601921e-01  4.5319607382946964e-01  3.6076772101054498e-02  2.5842692023108606e-02  4.4953289807129364e-02  3.4362012595298030e-01  3.2867527661447066e-01  3.1044685503055858e-01  2.6498190953144368e-01  2.4087407948268405e-01  3.9528030242758916e-02  4.6494385607922947e-02  6.3189357338930802e-02  2.2567366421935567e-01  2.5691786072692696e-01  2.4002277308790598e-01  1.6724979277674704e-01  1.9282730651868493e-01  1.6140119454267082e-01  7.6979895399707343e-02  4.9862501457067547e-02  5.4368766343351881e-02  5.6181182656600721e-02  7.8743938370573405e-02  5.6341325032214652e-02  3.7236808761452939e-01  3.6851571331991928e-01  3.9470172600417930e-01  4.9223289658490937e-01  3.2594618892768223e-01  3.1951831162939587e-01  3.0224785708185264e-01  3.7988844041811792e-01  4.1474396758261073e-01  3.7888122275597969e-01  1.1590219677617791e-01  1.0534800747535708e-01  1.7721363251039682e-01  2.0028903253283034e-01  9.6891058590857837e-02  7.9862955746752409e-02  1.0075353722646717e-01  4.0793209476012016e-01  4.2093312492692819e-01  4.2914481402481730e-01  2.4615782304604958e-01  2.5377107376374036e-01  2.3159417387209508e-01  5.8805262259098834e-01  6.0015908639825266e-01  5.9475200619217561e-01  1.1360203909145254e-01  1.2717879698402357e-01  1.3406056819935394e-01  0.0000000000000000e+00  0.0000000000000000e+00  5.0409170395084879e-01  5.2012708743307012e-01  5.1509998135125734e-01  5.8851424821631981e-01  5.2915985271923704e-01  5.1556342023055446e-01  5.3748101396743952e-01  4.5222297251310106e-01  4.5164247649697897e-01  4.6944198407198590e-01  2.7082800931769346e-01  2.8971660329303162e-01  2.5517959364932441e-01  2.9443222793065965e-01  2.1481363457585143e-01  1.8969893059444234e-01  2.0417693997174197e-01  2.6382430325702433e-01  2.2937236675573877e-01  2.5090793973457853e-01  3.4291095720769771e-01  3.2284310997475896e-01  3.4487733660172315e-01  0.0000000000000000e+00  1.5965834699413619e-02  1.7648800894544622e-02  3.8248243955105281e-02  2.4483482098547896e-02  4.7094538980291069e-02  2.5952173295330494e-01  2.3678722377678635e-01  2.1998167771948740e-01  1.2984322758412561e-01  1.1181545330787493e-01  1.5957228472774962e-01  1.5376665900169448e-01  5.3306907381185931e-01  5.2233906087179627e-01  4.8784707110955228e-01  4.7015208092838978e-01  4.7784490957937970e-01  4.8578349710754126e-01  3.1228331998980524e-01  2.8780523024367444e-01  3.0024950586853860e-01  7.3563116384084526e-02  7.4138242299719936e-02  4.9921252829031405e-02  7.7017937576591769e-02  6.0523255239391693e-01  6.0623132648652323e-01  6.0916556171841008e-01  6.0918804574782126e-01  2.3026650686159997e-01  2.5026505302468616e-01  2.4149982159202216e-01  4.2555558276941824e-01  4.0670924355232119e-01  4.3831729142100090e-01  5.1373913900724355e-01  5.3282728797374190e-01  4.5847054264519227e-01  4.5776340149190464e-01  4.8064619799465902e-01  1.8495145445255781e-01  1.1291145329309667e-01  1.3949687709815697e-01  1.5921010813551187e-01  1.5931147934734932e-01  1.0270928368709396e-01  3.1418354434430873e-01  3.1955701320730645e-01  2.9350899619386595e-01  1.9158121115666765e-01  2.1567759906709860e-01  1.9832052620346138e-01  1.8631265258823781e-01  1.8855956093820561e-01  5.2555978941685988e-01  5.8443177306693106e-01  5.8598815010887340e-01  5.9114733501109618e-01  2.0112411496247923e-01  2.2507644909050514e-01  2.3565790401977857e-01  1.4982370039585433e-01  1.8483101844277608e-01  1.6690900559528768e-01  3.0522989817584917e-02  1.6548897511030815e-02  5.8848534905271677e-01  5.9872024508852961e-01  5.9964463865247342e-01  5.5590259338397818e-01  5.7400891037760626e-01  5.0352039346458388e-01  4.9058154041260682e-01  5.3285629160938475e-01  5.5059369105389155e-01  5.3858326935576528e-01  5.4321474699201444e-01  5.5091867063025035e-01  5.6302053434152632e-01  2.4596130231107527e-01  2.4612568777942676e-01  2.1842507514628764e-01  5.9505122622017104e-01  5.9211664546044496e-01  5.9968228628107467e-01  2.6980906166513657e-01  2.7161538961944487e-01  2.4687070048222606e-01  5.1791554423734876e-01  5.1010522117343893e-01  3.1734932240585567e-01  2.9122388932513177e-01  3.1332491124730988e-01  3.3880813082028999e-01  3.9208540420062932e-01  4.0208302647868222e-01  3.8688640353571990e-01  4.0838492674264054e-01  4.0053457704141626e-01  3.8517274826700026e-01  3.6998586215637252e-01  3.9170947521639615e-01  4.1910056983438920e-01  3.9186818393425349e-01  3.4738455812579622e-01  3.4619872020824149e-01  4.1358839028203481e-01  4.4423855503295673e-01  3.1223657060882520e-01  3.0832586195103462e-01  3.5283036708968951e-01  3.7314046428264791e-01  1.3463775130516781e-01  1.6384648386420966e-01  1.5425713990024928e-01  2.4320636199063511e-01  6.8334692818686024e-02  7.3158709654174273e-02  5.2995084074444553e-02  6.0729581951309848e-02  8.8134304189833049e-02  6.8141879068325528e-02  5.0585409311607654e-01  1.3985238747455528e-01  2.6751556654019282e-01  5.9230457236497580e-01  5.8290531799556355e-01  6.0153659181519781e-01  3.1282803830026867e-01  2.8962625805469572e-01  3.1705729170304159e-01  3.4088065743094503e-01  4.9443433354954977e-02  6.1184838503085849e-02  7.7176396765752955e-02  5.0609054495857253e-01  4.9657135542476033e-01  4.3716648225125521e-01  4.4317556594817098e-01  3.5680198135245927e-01  2.1041785922330389e-01  1.9734703325908659e-01  2.3226145754712135e-01  2.8957522089486428e-02  1.4112485544781577e-02  4.2771935966928819e-02  1.2757908500617784e-01  0.0000000000000000e+00  1.9563548137554006e-02  0.0000000000000000e+00  1.0587354155582276e-01  8.7353345589930464e-02  8.4803634028286945e-02  4.5416655272038386e-01  4.4072859277589393e-01  4.7532108030714137e-01  4.5263637657744893e-01  4.7883514238606750e-01  3.2240247480469258e-01  3.5148539435197701e-01  3.3966377524123997e-01  3.6735878419406454e-01  4.5763339375214723e-01  4.7882510335771539e-01  4.6072006046477415e-01  4.4485620328741848e-01  4.2894497127618980e-01  4.4785365592873944e-01  1.5417180873162406e-01  1.7490924011904604e-01  1.5390096552489324e-01  5.4664057188882759e-02  4.6243785603326183e-02  3.3229805756410824e-02  0.0000000000000000e+00  0.0000000000000000e+00  3.7614766151608615e-02  2.1112980782528629e-02  9.3240759283791927e-02  9.5470198472336593e-02  5.3540217315982373e-02  5.0013638581348628e-02  2.4542480714689282e-02  0.0000000000000000e+00  0.0000000000000000e+00  2.4988124161692585e-01  2.5105396423994880e-01  2.2894648269023640e-01  5.8787205585172608e-01  5.9538738736162311e-01  5.7463968900545592e-01  5.8294497146396884e-01  5.7399164947382242e-01  3.6311092631329783e-01  3.8169861917982573e-01  3.8618465463566609e-01  4.3821028643177418e-01  4.5244381111019916e-01  2.1208887635970614e-01  2.3243585803972905e-01  1.5157183436552152e-01  1.4780367894749741e-01  1.2460064291084422e-01  3.0607227722482838e-01  2.8607305501248786e-01  3.3746453879007704e-01  4.6098601085544039e-01  4.7564891821558231e-01  4.4769214713255040e-01  2.6766577239190359e-01  2.2797704117918752e-01  1.9313858622103017e-01  2.2191926265999734e-01  2.5074710918249282e-01  2.7294276835035042e-01  2.5234207490572907e-01  1.3420257750390849e-01  1.1070073830160201e-01  9.6502685480806552e-02  6.0786481334753562e-01  6.0922395069686641e-01  6.0591186764993377e-01  6.0517118821522453e-01  6.0733490196534134e-01  9.9553348125096960e-02  7.5664082508014457e-02  6.0638299131787132e-01  6.0335875401249717e-01  5.8649571653741461e-01  5.7962161140839252e-01  5.7776517694549734e-01  1.0520191069463050e-01  1.3415241193859676e-01  1.7604312597966990e-01  1.5061872433390536e-01  1.7731583270360385e-01  3.0832448444011135e-02  2.8567339089700949e-02  1.3970129395310693e-02  4.3066445323344066e-01  4.0422487050250405e-01  3.8817137804601343e-01  3.8307713519645764e-01  9.6496624057546804e-02  8.0446671041929055e-02  2.6114780202574291e-02  5.4570644373828400e-02  3.2560049837385580e-01  2.9069210104999821e-01  2.6349662718273709e-01  6.5624260099298087e-02  9.1452238876208305e-02  8.9655751321823379e-02  7.2266335266648510e-02  6.1090153756351621e-02  1.0805007762525234e-01  1.3065124222821808e-01  1.4490594735073545e-01  3.9542045521783094e-02  2.4161230886950054e-02  2.0643080421606196e-02  5.2313404376199801e-02  5.9923242493237261e-01  7.2812819264552894e-02  5.3181711097800725e-02  5.1579062430501713e-02  9.7789845488860161e-02  8.9838088551523740e-02  5.1764287063732428e-01  3.9173080397324883e-01  3.7007448590682773e-01  3.7156832643139681e-01  3.4145212825587140e-01  3.8091343682155498e-01  4.1188171150759251e-01  4.3556252157999542e-01  3.4439608730653867e-02  3.1144146995206953e-02  5.2367906982070378e-01  5.4073188624672408e-01  5.2628258879107370e-01  3.4000027661769033e-01  3.9624126149202560e-01  3.7357262745927677e-01  1.7730710486388276e-01  5.8145682055856718e-01  4.6910173952595163e-01  4.9577817765595855e-01  5.4939630939160011e-01  5.6900831304594779e-01  5.5977696694113455e-01  5.5089422746132755e-01  2.2283309483878391e-01  1.8847447738241066e-01  2.0411883159760980e-01  2.1949289101000438e-01  3.1777232326176230e-01  2.9453953508467512e-01  3.5593990402284637e-01  3.7129132255643094e-01  2.2233424093156479e-01  2.9745288599446051e-01  3.7934436200090715e-01  3.9962429476753930e-01  3.5222764703849740e-01  3.4458205712938988e-01  5.6427401136689248e-01  5.7351449312434810e-01  5.7042583482591136e-01  5.7272745336698194e-01  1.3156397284613613e-01  1.7960380854004740e-01  1.8618569948245037e-01  1.5574098038371895e-01  2.0992628121040625e-02  1.4834010496766317e-01  1.2166466123222555e-01  1.0272701516256633e-01  1.1473564123133090e-01  5.8367771063572871e-01  3.7150659144987351e-02  4.9363276081408981e-02  1.7753208022171806e-02  3.9891656706452566e-01  3.7233706652621013e-01  3.9812084578816886e-01  4.1156586965657005e-01  4.1916121291422614e-01  6.0869079804242021e-01  6.0277351233724941e-01  5.6070357482691369e-01  5.5315580884936510e-01  5.6498518672560460e-01  5.7455062074509189e-01  5.5956484130907791e-01  5.6246877134577322e-01  3.5768903312247530e-01  3.6016139511061229e-01  3.1484293894616433e-01  2.0595324746595858e-01  1.9585789302164303e-01  2.1411702662477447e-01  3.3671391285700403e-01  3.2847106270367205e-01  3.5169042062255218e-01  3.4836728195347250e-01  3.2556799743992521e-01  5.7259970482912070e-01  5.2308633032573515e-01  5.4287261031947753e-01  5.3020255035647623e-01  5.2241622193649795e-01  9.5474626208639266e-02  7.3865213577511163e-02  9.9385728010997446e-02  4.3522021671303274e-01  4.1663565487611659e-01  4.1597755793584845e-01  5.0733765552289212e-01  4.6064743670609815e-01  6.0300366972729502e-01  5.7258937992134729e-01  5.7526632557302804e-01  4.3881363760887993e-01  4.1854426618637541e-01  3.9609281330760088e-01  1.9436050161816498e-01  1.5064318860086665e-01  1.0294840481459112e-01  1.2589670672675804e-01  1.1924871761629655e-01  1.0624957940399091e-01  0.0000000000000000e+00  1.6741606806812727e-02  3.8049281222983351e-02  4.1797682857035418e-01  3.9539547772073325e-01  4.0685613580926222e-01  1.1852276946171844e-01  1.7205561568754885e-01  2.0710697423365243e-01  4.7729140163087058e-01  4.5173998207290084e-01  4.6578736906618812e-01  4.5448422220157675e-01  4.3344252850150389e-01  4.3572410334847828e-01  4.1143183097365815e-01  3.4374348503720509e-02  4.7443436447985682e-02  9.2242016735096258e-02  1.6839538684115316e-01  1.7834111778106918e-01  1.9730491483569959e-01  1.9638366088854509e-01  5.5899425984784434e-01  5.6610781838718760e-01  5.5416073333777305e-01  4.9781506682355270e-01  5.3890756905875484e-02  5.8993135300000075e-02  6.0175179989504467e-02  8.1757687038342935e-02  3.2284668483086865e-01  7.7083199642375685e-02  6.0647107953287600e-02  5.5470257434249888e-02  7.6972987974230078e-02  0.0000000000000000e+00  1.5200699165928320e-02  1.8560008840852332e-02  3.6170821389149210e-01  4.1352089884632104e-01  4.3524246467696737e-01  1.9842286577327059e-01  2.4040735281520464e-01  2.0867157383165824e-01  2.6998481678144193e-01  2.4676114428996304e-01  4.8394810537855321e-01  4.9665726050713610e-01  1.8804924683588120e-01  2.4631985286193062e-01  1.4982550299512254e-01  1.7369857410449810e-01  2.4267365375571234e-01  2.4936817486088633e-01  1.2407523557234318e-01  3.3897970803699592e-02  2.9369798379115308e-02  5.8849127088365949e-01  6.0289152075780250e-01  2.8173274254085023e-01  3.0308136212394871e-01  2.8223257660283479e-01  2.5856680636751606e-01  2.4203030000157627e-01  2.9100333133224365e-02  3.2665817622961259e-02  2.3774489725171145e-02  6.3671290598123778e-02  5.9082247847007927e-02  1.2259368847215008e-01  1.4426904522486222e-01  5.8252075795695468e-01  5.9417903442722686e-01  5.7871336819212815e-01  5.9608140139704391e-01  5.8691496697830536e-01  5.9495740655486296e-01  5.9197633796034244e-01  2.5783933067523174e-01  2.8591580796190930e-01  1.1940978459562959e-01  1.0006314619507771e-01  1.1268734383701152e-01  3.6736193195028355e-02  1.6540544027537039e-02  1.9987803137726710e-02  3.5167638376728155e-01  3.7137941609958658e-01  4.1733960139048082e-01  4.9481697969944144e-01  4.9546939220328817e-01  4.7691304538792789e-01  1.8629349869208531e-01  1.9536510373657454e-01  2.0827810580302381e-01  6.3404754633939311e-02  0.0000000000000000e+00  0.0000000000000000e+00  2.6102862993478391e-02  2.0840778882808522e-02  4.3180248575285080e-01  5.8886036926088325e-01  1.4158083485247078e-01  1.6779418400583654e-01  1.3979249767054400e-01  5.4583745809220219e-01  1.2679532595907969e-01  6.0738383947944757e-02  4.8761339395445563e-01  5.0600679688438910e-01  5.0206520539071864e-01  5.2329411379116630e-01  5.2315417367395323e-01  5.0793486408087152e-01  4.4456337526142714e-01  3.5155593446314404e-01  5.4958701813098851e-02  8.3721877746323725e-02  1.6894607012562676e-01  3.1215317110319929e-01  3.1620014707374328e-01  3.8373082013818272e-01  5.6195057457294850e-01  5.5180238734896736e-01  4.5577880664984149e-01  4.8600784908222810e-01  2.9391163894892119e-01  2.6859257950117371e-01  2.8590457958769194e-01  1.3981433804877949e-01  9.5075581421503602e-02  3.5088673524928324e-02  3.5030637972752035e-02  1.4860322880930569e-02  3.8527885130476204e-02  1.7536401629503134e-02  5.3892974258417081e-01  5.3019559188254883e-01  5.9485866113248498e-01  5.9392858655159519e-01  5.8196480966950148e-01  0.0000000000000000e+00  0.0000000000000000e+00  5.1522932132368880e-02  2.8695685377548262e-02  2.6071493394646794e-01  2.151387751