<?xml version="1.0"?>
<VTKFile type="UnstructuredGrid"  version="0.1"  >
<UnstructuredGrid>
<Piece  NumberOfPoints="785" NumberOfCells="1485">
<Points>
<DataArray  type="Float64"  NumberOfComponents="3"  format="ascii">1 0 0  0.9510565162951535 0.3090169943749474 0  0.8090169943749475 0.5877852522924731 0  0.5877852522924731 0.8090169943749475 0  0.3090169943749475 0.9510565162951535 0  6.123233995736766e-17 1 0  -0.3090169943749473 0.9510565162951536 0  -0.587785252292473 0.8090169943749475 0  -0.8090169943749473 0.5877852522924732 0  -0.9510565162951535 0.3090169943749475 0  -1 1.224646799147353e-16 0  -0.9510565162951538 -0.3090169943749469 0  -0.8090169943749476 -0.587785252292473 0  -0.5877852522924732 -0.8090169943749473 0  -0.3090169943749476 -0.9510565162951535 0  -1.83697019872103e-16 -1 0  0.3090169943749472 -0.9510565162951536 0  0.5877852522924729 -0.8090169943749476 0  0.8090169943749473 -0.5877852522924734 0  0.9510565162951535 -0.3090169943749476 0  0 -1.110223024625157e-16 0  0.4510565162951535 0.2298247742126793 0  -0.07919222016226819 0.5 0  0.4217401972019558 -0.2701752257873207 0  -0.4664690173352599 0.1823899734948475 0  -0.3579604780797941 -0.3579604780797938 0  0.08947756573959761 -0.564939116217821 0  0.2920115546147195 0.5731049448157398 0  -0.6379736825905938 -0.1331202236553083 0  -0.5008003933374412 0.5008003933374412 0  0.6995191145456661 -0.1107929434536306 0  0.142039521920206 0.2787682579175257 0  -0.3334887362273707 -0.6545084971874736 0  0.1245525093718384 -0.2698283057066694 0  0.394121195831843 -0.5736904951771631 0  -0.3634291792402099 -0.07798855321373677 0  -0.7398752304198022 0.1266395525571908 0  0.5513406906673669 0.5513406906673668 0  0.06772072383772594 0.7330026833223602 0  -0.1798257626464556 0.2277898049615374 0  -0.1329363554971779 -0.2250241225826161 0  0.2899847546250717 -0.01159061002844763 0  0.7178334616361693 0.1634954202353548 0  -0.185558029016192 0.7298829572732783 0  -0.5575821515891235 -0.5237174003589158 0  0.6636796672438613 -0.3700844779107332 0  -0.1473869834727682 -0.4898672660924318 0  -0.1245776731282009 -0.7865524724078699 0  -0.7047576755565585 0.3676611205918164 0  -0.7200632558821398 -0.3535872110403818 0  0.1059826075223748 -0.795065377569524 0  0.8800367553350505 0.4484011233337103 0  0.623199147317663 0.3525294878401746 0  0.5129820594521588 0.01406716385861899 0  -0.2901427146123197 0.4232796753639339 0  0.6984011233337102 -0.6984011233337104 0  -0.4012649964410931 0.6952739930058706 0  0.2729833322899929 -0.4096530452196732 0  0.3012581447838918 -0.7510272980442365 0  -0.8137027520495476 -0.05218979815199046 0  0.4331943037813432 0.6994662051624437 0  0.4096672220709169 0.4191323268585566 0  0.1043321860738427 0.5471012642541169 0  -0.1964715282981352 0.02977353470457396 0  0.2552131475805349 0.7680603542530016 0  -0.5388598112947428 -0.3431837635368604 0  -0.5797382542202413 0.03959248166636803 0  0.009584998068538048 -0.4058038127633932 0  0.1545084971874738 0.9755282581475768 0  0.4973115362790197 -0.4300662553549759 0  0.5658689724588636 -0.5882049478260758 0  0.2422046756816651 0.4131071900577793 0  0.7836508779194769 0.3146499317110243 0  -0.1545084971874736 0.9755282581475768 0  -0.06024135378981482 0.8388279256599832 0  0.8224179041086225 0.01875666381115074 0  0.9755282581475768 -0.1545084971874738 0  0.1492029128681321 0.09954782333993309 0  -0.007766320725004716 0.1830271833708655 0  0.3053451802085407 0.1526019885243211 0  -0.008583573074307321 0.3493769050054867 0  -0.2248586819964352 0.5721497532038938 0  -0.6984011233337102 0.6984011233337104 0  -0.6608599644184795 0.5232054702963955 0  -0.4379831721234783 0.3465173839916844 0  0.78947533516742 -0.2553493950128032 0  0.5377785018220788 -0.1506580215248616 0  -0.4377018126721021 -0.2194786956927773 0  0.9755282581475768 0.1545084971874737 0  -0.8135818870758709 -0.2173971224509217 0  -0.8800367553350507 -0.44840112333371 0  -0.8800367553350504 0.4484011233337104 0  0.8800367553350504 -0.4484011233337105 0  -0.6984011233337104 -0.6984011233337102 0  0.6984011233337103 0.6984011233337103 0  -0.4484011233337102 0.8800367553350505 0  -0.4484011233337104 -0.8800367553350504 0  0.1545084971874735 -0.9755282581475768 0  -0.1545084971874739 -0.9755282581475768 0  -0.9755282581475768 0.1545084971874738 0  0.4484011233337103 0.8800367553350505 0  0.4484011233337101 -0.8800367553350505 0  -0.9755282581475768 -0.1545084971874734 0  -0.3127199235709721 0.1392534573254163 0  -0.005479567850930206 -0.6874046165737091 0  0.2732479409242113 -0.1829771259830817 0  0.1418810278893715 -0.0836379635813527 0  0.004538992852202391 -0.15446060603175 0  -0.2853499925602263 -0.2239500765044786 0  0.4567744071463516 -0.7194815091863737 0  0.2407354298475123 -0.6063519260829316 0  -0.6189916801537911 0.2320956117698647 0  0.6914879155064673 0.4896037129438954 0  -0.1790968367221579 -0.6415245347002975 0  -0.3212528653011592 -0.8027825067413136 0  -0.4953997049317194 -0.6745488295647377 0  -0.3019794247314472 -0.5026245467723092 0  -0.5503379494258648 0.6488635672452867 0  -0.1526806950398258 0.3736888875971234 0  -0.3677221816356187 0.5553972409288912 0  0.4114570176646632 -0.08544454673099088 0  -0.3115221870742588 0.2814617094129646 0  -0.5055096840583726 -0.08161026592659262 0  -0.4207091841266609 0.04992126597993612 0  0.8394524656852788 -0.1204728868496304 0  -0.8092094227335564 0.2598108991006964 0  0.323275210824397 0.2948523260610789 0  -0.01235717006850368 0.6206762832191056 0  0.5723120307309651 0.1478612873198991 0  0.6584453108854001 0.0296143784812711 0  -0.1127073123157568 -0.08060902155425154 0  -0.3263472417314189 0.8127807834423398 0  -0.5693189598496932 0.3829729594944991 0  0.1787115426866188 0.6583053932958268 0  -0.2086945469431951 -0.3537063371349133 0  0.1413875674469653 -0.4006527365317505 0  -0.8825665179032465 0.06059258382501253 0  0.644423923763579 -0.2353002930398254 0  0.6873112429813564 -0.5116720902927442 0  0.5622403797493952 0.6812145165111156 0  0.4206022107082307 0.5494267599564201 0  -0.6985923484076459 -0.4957346960056245 0  -0.4275853811955493 -0.5583578671446736 0  0.1085975446525227 0.4135614629143593 0  0.8462315462026486 0.146118149748369 0  0.0718775524803872 0.8683064513691334 0  0.2157671749860278 -0.8623003278851888 0  -0.0009650574677971344 -0.2802933617576216 0  -0.6918203030037906 -0.01878988057032068 0  -0.2381679848617855 -0.08884164997446616 0  0.423770719651625 0.1052277906161352 0  -0.04008614995957274 -0.5625247949542947 0  -0.1838372862262216 0.8544504343113826 0  -0.06228883656410056 -0.8932762362039349 0  -0.2167973337515742 -0.8688044943515117 0  0.5422127886147651 -0.3110393647923049 0  -0.08715913041914175 0.08797997509234301 0  -0.4554204244795622 -0.4363932914340152 0  -0.8358691411028879 -0.3329048731086893 0  -0.696161304464804 -0.2369706844702208 0  -0.5584023614893824 -0.2239903645074836 0  0.1899841503682763 -0.7125800017390629 0  -0.7645428941125212 0.4685002778378229 0  0.06385263338978434 -0.9031496607807421 0  0.1885230304214117 0.8638639632561416 0  0.7840064636769384 -0.375682112498297 0  0.20078000365488 -0.4988085223509479 0  0.3065188648271355 -0.2963540786387833 0  0.3818589112326135 -0.4559984283196847 0  -0.3101348374984462 0.02265782905399914 0  -0.09274097508423339 -0.3512064167914866 0  -0.6034356931010622 -0.6308547114517774 0  0.5306709666442585 0.4314779253418129 0  -0.04412882481905579 0.7280335190386622 0  0.368139879099501 0.7958703882135997 0  0.5664333444162233 -0.6996425847768714 0  -0.6116455351171063 -0.4268731036572567 0  -0.4025747561849136 0.4508638281790917 0  -0.2867957698889448 0.6713445967088895 0  -0.4986338823410387 0.7454077904527141 0  -0.1197223386227034 0.6012931190607056 0  0.6019841841703942 -0.0631137624285925 0  0.4793630357317586 0.335191930278104 0  -0.4057080951926841 -0.7351100538182147 0  -0.2500487025609878 -0.7222647261547557 0  -0.5202389861383073 0.2762579513581566 0  -0.004903510438664035 -0.7983375068467664 0  -0.8677303216271283 0.1682446337113246 0  0.9632923872213652 -0.2317627457812107 0  0.6359382133354268 0.2407019555277372 0  -0.1954327480994572 0.4704960404955171 0  -0.09318292723014725 0.2871443445734201 0  0.6543968779059033 0.5953449360951739 0  0.5860085732792212 -0.4855437761655895 0  0.02433540313127336 0.477708088704549 0  0.2050327353918737 0.1915327024870737 0  0.3019600516521567 -0.5224112525625693 0  -0.4559197183044352 0.6082074424089278 0  0.9877641290737884 0.07725424859373685 0  0.8445268748549989 -0.5180931878130919 0  -0.7537090588543289 -0.6430931878130917 0  -0.8115083307004233 0.366542657984397 0  0.9877641290737884 -0.0772542485937369 0  0.3157389177020913 -0.8506306959163319 0  0.3661954416712823 -0.6720495099691162 0  -0.2110888953948772 0.1307100872489919 0  0.2771278415803478 0.671246208704549 0  0.7755166821205643 0.4221168689217691 0  0.09258535306910454 -0.6974063904331503 0  -0.5180931878130919 -0.8445268748549989 0  -0.5636233828952756 0.1431321340909777 0  0.2093668298544761 -0.3254094489515746 0  -0.7452216441755674 -0.1347434040272279 0  0.3432419291961207 0.4903131612096761 0  0.9632923872213652 0.2317627457812105 0  0.8654704589902047 0.2558653845079852 0  -0.7721646645307192 0.03531578018689553 0  -0.9877641290737884 -0.07725424859373664 0  0.3972451269157145 -0.7968729007064921 0  0.2047656419391337 0.5125131148681941 0  -0.7107486842465451 0.2689580543411794 0  -0.8747057134039039 -0.1348381340198916 0  0.9075822029513861 -0.02495856901956285 0  0.4175383422250996 0.009896499472273557 0  0.1611803648706316 0.7520641323258265 0  0.293383900196892 0.8562452162748729 0  -0.9632923872213652 -0.2317627457812101 0  0.4226327034146973 -0.3675580274712185 0  -0.6211574309532173 -0.2954782403839667 0  0.5073765864410278 0.7586347332656206 0  0.3688379632316558 0.6293192053628369 0  0.484958551257918 0.6195737597560269 0  0.08576045253602423 0.639999587219085 0  -0.8445268748549991 -0.5180931878130914 0  -0.7797212151374868 -0.4352936457408597
[...]
<PointData  Scalars="f_1261-2"> 
<DataArray  type="Float64"  Name="f_1261-2"  format="ascii">0.0000000000000000e+00  0.0000000000000000e+00  0.0000000000000000e+00  0.0000000000000000e+00  0.0000000000000000e+00  0.0000000000000000e+00  0.0000000000000000e+00  0.0000000000000000e+00  0.0000000000000000e+00  0.0000000000000000e+00  0.0000000000000000e+00  0.0000000000000000e+00  0.0000000000000000e+00  0.0000000000000000e+00  0.0000000000000000e+00  0.0000000000000000e+00  0.0000000000000000e+00  0.0000000000000000e+00  0.0000000000000000e+00  0.0000000000000000e+00  1.7226431455471274e+00  1.1024459806334950e+00  1.0988333194873925e+00  1.1068628245344820e+00  1.1107311948597991e+00  1.0996149641745443e+00  9.5042665995446385e-01  7.9147221599396644e-01  7.6421799651318578e-01  6.3270254961965622e-01  6.2948199048795883e-01  1.4691216463776444e+00  5.7431802031606627e-01  1.4863335319093285e+00  6.6415882284172734e-01  1.3665229624410429e+00  5.3464880788017410e-01  4.6147535149935698e-01  5.7131074968702389e-01  1.4984835853518170e+00  1.5384900071329568e+00  1.4991470950173085e+00  5.6590882343269466e-01  5.3510286896479375e-01  4.9920849826174357e-01  5.1085469727363564e-01  1.0828472226484789e+00  4.2972644522536052e-01  4.2713496754105484e-01  4.2427707160660194e-01  4.1138387421384248e-01  0.0000000000000000e+00  6.1912795712465218e-01  1.0867628531485594e+00  1.0863547288896387e+00  0.0000000000000000e+00  4.2217155757586705e-01  1.1274145390338477e+00  4.0080876744285449e-01  3.8761297777982118e-01  3.7229629776448608e-01  9.2141774325928005e-01  9.9201979629260917e-01  1.6147414689638100e+00  4.0161873116017682e-01  8.0182875539870246e-01  9.3623162007926974e-01  1.3004940475290145e+00  0.0000000000000000e+00  7.5900283683295966e-01  3.9664040417854307e-01  1.1558072554958005e+00  3.1969443685667065e-01  0.0000000000000000e+00  3.2848921594703445e-01  3.6687800161648798e-01  0.0000000000000000e+00  1.6330643432592131e+00  1.6327349761864292e+00  1.4199930210788729e+00  1.4058257076919238e+00  8.5922394606256602e-01  0.0000000000000000e+00  3.2512852854011481e-01  9.8811475529426651e-01  3.5169038671071506e-01  9.8270091272346527e-01  1.1354046250654057e+00  0.0000000000000000e+00  3.2497831313779907e-01  0.0000000000000000e+00  0.0000000000000000e+00  0.0000000000000000e+00  0.0000000000000000e+00  0.0000000000000000e+00  0.0000000000000000e+00  0.0000000000000000e+00  0.0000000000000000e+00  0.0000000000000000e+00  0.0000000000000000e+00  0.0000000000000000e+00  0.0000000000000000e+00  0.0000000000000000e+00  1.4156230586913012e+00  6.8531569407727799e-01  1.4361555192419062e+00  1.6484193262398019e+00  1.6554396476458828e+00  1.3821489193048040e+00  3.0110344354432217e-01  7.6689624114828736e-01  7.5231335343868244e-01  3.1612899614030965e-01  7.3599678413615854e-01  2.7210576003097692e-01  3.4177292443005264e-01  9.1987258702182750e-01  3.0337801088830879e-01  1.3081928131198515e+00  7.3306333686576219e-01  1.2779261703795377e+00  1.2782976058929414e+00  1.0901992795920699e+00  1.2692257330127648e+00  2.9810846959146864e-01  3.0064772733024708e-01  1.2394978994772239e+00  8.4368493464748329e-01  9.1371028713107572e-01  7.5500992189697180e-01  1.6708962357502894e+00  2.4253722773835604e-01  6.8662965778250262e-01  6.9541327553101684e-01  1.2922411366924300e+00  1.2635756351701901e+00  2.1936863632173950e-01  6.8986082988400066e-01  2.9668632593044864e-01  2.3195353698386256e-01  6.7690084420174779e-01  2.9182296614548575e-01  6.5159249687533405e-01  1.2616645515705838e+00  2.7846252982696057e-01  2.6155048729953717e-01  2.1466270587641004e-01  1.5098097671173953e+00  6.7904058443600479e-01  1.5501051599443858e+00  1.2446833174368812e+00  9.6946541879682990e-01  2.5051958791886653e-01  2.0957155268285865e-01  2.0470843895575302e-01  8.2746461419809836e-01  1.6811639689312012e+00  8.1997882041659764e-01  2.0037195722531048e-01  5.7028794107748482e-01  8.8496916373512158e-01  5.6796519892959774e-01  2.0271589108961482e-01  1.8295068819176694e-01  2.3159511210672354e-01  2.5271294182054727e-01  1.0275382488064639e+00  1.2591300708033137e+00  9.0542671499605276e-01  1.4665760084726764e+00  1.3772504431058734e+00  2.4768185076379659e-01  6.9367015846755731e-01  5.8853379579985077e-01  2.4741126170471764e-01  1.9747981024442662e-01  5.4788425266668217e-01  8.8243370620988992e-01  5.8910086377074100e-01  2.0021097545802957e-01  8.5833416407385743e-01  8.7447329537157292e-01  9.3089769147585710e-01  3.3507864913176011e-01  5.1082364303441996e-01  9.1777665756072202e-01  4.2223056513571927e-01  2.1979826285250847e-01  0.0000000000000000e+00  7.0291170579447049e-01  1.0962873174704844e+00  1.4809944764763916e+00  2.2332574056510765e-01  5.1621865373415488e-01  1.1629219922635039e+00  1.5150824739304298e+00  8.8021155529648964e-01  5.1813582204507058e-01  0.0000000000000000e+00  0.0000000000000000e+00  0.0000000000000000e+00  2.0384634956684669e-01  0.0000000000000000e+00  1.8096662694278462e-01  4.9991572488610675e-01  1.5567538895227664e+00  6.0012911445478812e-01  2.2437272431475883e-01  6.4688128211720142e-01  0.0000000000000000e+00  9.3390436654574382e-01  1.3362759795048769e+00  5.2043382059256849e-01  8.9236865277174870e-01  0.0000000000000000e+00  1.8625413432500809e-01  4.8001475238530628e-01  0.0000000000000000e+00  2.1829842955087120e-01  9.9719218862629611e-01  5.1199618556865134e-01  2.1450464186775497e-01  1.7799103245366063e-01  1.2823771041392746e+00  4.9131170041213046e-01  1.8911547287932010e-01  0.0000000000000000e+00  9.7962913875994673e-01  6.9250852070741797e-01  1.7543033147857082e-01  5.9375075989967407e-01  4.5618756709445046e-01  7.8344609723657266e-01  0.0000000000000000e+00  2.0403067443662024e-01  0.0000000000000000e+00  2.0745225091700278e-01  1.6122452968028760e+00  8.9920416819353621e-01  8.8373956765210193e-01  1.1581959872058023e+00  2.1712751535528441e-01  1.2576339510871741e+00  1.2779636473995766e+00  1.6240034071515819e+00  1.6972945671963127e+00  1.6857975591262988e+00  1.5952663924324990e+00  1.5384252059329753e+00  7.5846897043759853e-01  8.8108329964001864e-01  1.3319374108033681e+00  1.0103379411472877e+00  1.7100308847961510e-01  7.7432428903776040e-01  2.0495587039381533e-01  4.3913525697116490e-01  0.0000000000000000e+00  7.7637027593346619e-01  4.7680135327423662e-01  4.9256588642864590e-01  1.1179131067969548e+00  1.2262573483351396e+00  1.4143458444569081e+00  1.6064393141871940e+00  1.5289364245137393e+00  6.1929088308368374e-01  4.5631071708320936e-01  6.6588284464196490e-01  1.4025491278285713e+00  1.8108583365769246e-01  1.1147772687748343e+00  2.1520224442899324e-01  2.0559655181915074e-01  3.9154298619512823e-01  5.2383210148370363e-01  1.1186987106941189e+00  1.2861715424394684e+00  1.5183580668727212e+00  1.4316406582184440e+00  1.5585496184908261e+00  1.5254766731990044e+00  0.0000000000000000e+00  1.7091370901426342e-01  1.9259723665835418e-01  4.8957006597647190e-01  1.0905514949729511e+00  1.6988367646454070e+00  4.9280643142598962e-01  5.4307461926014722e-01  0.0000000000000000e+00  0.0000000000000000e+00  1.0636472183901666e+00  1.5453781328606947e-01  0.0000000000000000e+00  4.2730997393768461e-01  1.2819212044970263e+00  9.4139015235327528e-01  2.0536489401804930e-01  7.8964604600420596e-01  1.1077518862678819e+00  1.0995619815965485e+00  7.8991035381153518e-01  9.9746209946512865e-01  1.2844343857616569e+00  4.2289707434161583e-01  1.8213667159613106e-01  4.3932749290821965e-01  1.4265084705811206e+00  2.0514933156140377e-01  1.5023705154700981e-01  3.8905327253477878e-01  5.1012443231131799e-01  1.2621506508173390e+00  1.6990667054763524e+00  0.0000000000000000e+00  9.2102169445757132e-01  5.5655466357870143e-01  0.0000000000000000e+00  4.2347100152521239e-01  5.0174322250099168e-01  4.2796606130450932e-01  9.2161084599534104e-01  7.1610341932219645e-01  6.7725404337340067e-01  1.0946313623391355e+00  1.2388044359013273e+00  1.5775223325392351e-01  3.8344118975588470e-01  7.2332801836961524e-01  1.1041591827893513e+00  0.0000000000000000e+00  1.4096568408070074e+00  6.2212604382861714e-01  6.3257126995708457e-01  1.1932543616762883e+00  1.2117747441306268e+00  1.4472714798882549e+00  1.0871245710586706e+00  1.3983635507929695e-01  4.3288091197880946e-01  1.7445407163870541e-01  1.7736056897181440e-01  3.7695209403044727e-01  1.3888821091492471e+00  0.0000000000000000e+00  5.8492465612032984e-01  7.0664230306332221e-01  1.5780219583861230e-01  6.9810248501688776e-01  0.0000000000000000e+00  0.0000000000000000e+00  0.0000000000000000e+00  0.0000000000000000e+00  0.0000000000000000e+00  0.0000000000000000e+00  0.0000000000000000e+00  0.0000000000000000e+00  0.0000000000000000e+00  0.0000000000000000e+00  0.0000000000000000e+00  0.0000000000000000e+00  0.0000000000000000e+00  0.0000000000000000e+00  0.0000000000000000e+00  0.0000000000000000e+00  0.0000000000000000e+00  0.0000000000000000e+00  0.0000000000000000e+00  0.0000000000000000e+00  2.3971753556902559e-01  1.4482346001031565e-01  1.0385672342732555e+00  1.1543213410303770e+00  1.0670789533329257e+00  7.6749419228059390e-01  8.1040869641814239e-01  5.4964556346077043e-01  6.1262392612588878e-01  1.2916835367359976e+00  1.0782489591107696e+00  9.2347857081558082e-01  1.6341612490549431e+00  1.7018841013714203e+00  1.6844913296181166e-01  1.2899046464395278e+00  1.2720230192910256e+00  1.4208659950911622e+00  3.8582506422259238e-01  1.3965335304635280e+00  1.0024415600574543e+00  1.6874167780503646e-01  3.3892803517941117e-01  3.9567770600565122e-01  1.2487132885955361e-01  4.3539704915361876e-01  1.4012017583076346e+00  8.3483231911622979e-01  1.5629147817017821e+00  1.4365102767045218e-01  9.8756736259384159e-01  1.3685374708840292e-01  1.5886436580053856e-01  4.0348402810057632e-01  4.1734330499329336e-01  1.5317986918380859e+00  1.3011020325934204e+00  6.4834380926550272e-01  1.0018141705954704e+00  7.3779522676111620e-01  7.2231087586558029e-01  6.6098191957183305e-01  9.3753815193917800e-01  8.3496907408114118e-01  1.6344199466183879e-01  1.5680271893236213e+00  7.8050646839571236e-01  1.5442739842376557e-01  2.1446741411596620e-01  1.4109966418202393e+00  7.5071510264143460e-01  5.9668402178512381e-01  6.7989813453754377e-01  3.7460529902456174e-01  4.0532304411170617e-01  3.6195419028045744e-01  3.6212037373341593e-01  4.4836086505254330e-01  3.5266226374126136e-01  1.6618195015215637e-01  5.6024002726883648e-01  1.1543486482723788e+00  1.3830474203709218e+00  9.3137441902116225e-01  3.5617878310380002e-01  5.6268510584418652e-01  1.7029537036103808e+00  4.7160478548015278e-01  6.4193138977967124e-01  5.2907530221207089e-01  3.8101156522584217e-01  1.0059563772589790e+00  9.1022376196742005e-01  1.3270562004888726e+00  9.0051418433052555e-01  1.3637733434058832e+00  1.5461046790020432e+00  1.2570219175254214e+00  1.6278993707547911e+00  7.3023898121362585e-01  3.2258267033348187e-01  9.6093461902067534e-01  6.8692161496975401e-01  8.0970856165898153e-01  1.5499325823837168e-01  3.2328353317761527e-01  1.3912530248420036e+00  1.1947696982442153e+00  5.4587023374017196e-01  8.5663813814755152e-01  1.1337292526321230e+00  6.8132743688229869e-01  1.3464026431994336e-01  1.3761117660070301e+00  1.1836423002535996e+00  1.0747163892241138e+00  1.3818256863216186e-01  6.6491311691045984e-01  1.6044412459556048e+00  5.7865509659894154e-01  8.4087574516239183e-01  6.4929214830943183e-01  5.5298339204564861e-01  1.4975745367437035e-01  1.1242462291964750e+00  1.3255068999124104e+00  1.6037024925166304e-01  1.5375485192077701e-01  1.9852014476461349e-01  1.5511568329014667e+00  1.5388414012568581e+00  9.6054168044491295e-01  1.3600599591180154e-01  1.3405339834070679e-01  3.4989861146015810e-01  7.7799022337868173e-01  1.3781022414014557e+00  1.2257280414434550e+00  1.2481133962965525e+00  1.2044051688498263e+00  1.3755317141152421e-01  1.3140004472530434e-01  1.6209726238417479e+00  7.2704888534801404e-01  5.7871892219881726e-01  3.8159724087464225e-01  1.1004684755493384e-01  3.2386986617167357e-01  7.7019728081721817e-01  1.4540592684976672e-01  1.1251133546179197e+00  8.3046968753530026e-01  9.7186774857521463e-01  1.0820777518818763e+00  4.2959464635605488e-01  4.4864026168642868e-01  5.2818360406430709e-01  3.8763472950202260e-01  4.6473933438457199e-01  1.3615551332492906e-01  3.2053823516847069e-01  1.1390290928253601e-01  3.7267045903145840e-01  3.9703012352526007e-01  1.0504423738735162e-01  9.4121945947972896e-01  1.4612749962542215e+00  5.4150290038279003e-01  9.9784968887974376e-02  1.1602336920946523e+00  8.0131885697149274e-01  6.7568932167540929e-01  1.2924698743404997e-01  6.6164111575724127e-01  1.5569337708644311e+00  2.6869976295825043e-01  1.2769520175570781e-01  1.0387576658498582e-01  7.6497704391799459e-01  3.3242301962351561e-01  1.3922159306203272e+00  1.4108699236242923e+00  8.8171595245954071e-01  3.4047869159948113e-01  3.8372345290758125e-01  1.4795451136574753e+00  7.3774333721661156e-01  7.5186954224227498e-01  8.5461335307364517e-01  9.6304329277228407e-01  4.4733984456435205e-01  7.6278261217163223e-01  1.0940705101515726e-01  1.4382715675964164e-01  1.1800153588104352e+00  1.3471923512032273e+00  1.4420657379221999e+00  1.6576133495322156e+00  1.6636455930266718e+00  1.1568633472731726e-01  1.3790003107261692e-01  3.4176605746718847e-01  1.0242187461442243e-01  3.5020741045797182e-01  1.1875144759156127e-01  1.2889709950960038e-01  8.1732101389818246e-01  1.6633717849856891e+00  1.5146920019089918e-01  1.4474205194530815e-01  8.3728961045722627e-01  6.1415088346704672e-01  8.2690600028824379e-01  1.2085499826169057e+00  1.0338651150866811e+00  8.6499273784861164e-01  2.0629719026784940e-01  1.7045021714978803e+00  7.2915538836508242e-01  3.5646980921428612e-01  1.4605628407569374e-01  1.3346498016662994e-01  1.0706960542956814e+00  1.5931208531519894e+00  1.3580076845285765e+00  3.1584575008842253e-01  1.2945522988514913e+00  5.0070013105962952e-01  4.5585932242783495e-01  6.7200015263111423e-01  4.7031909935994093e-01  4.4537474198292171e-01  7.6830075414480881e-01  9.8404636990552574e-01  1.0380260961338157e+00  8.4483921688987051e-02  1.3862681568302446e-01  1.1903667733358605e+00  8.6087565657333631e-01  1.4376990208824694e+00  1.0076560557635938e+00  3.3920389330142409e-01  6.5030399114171811e-01  4.9608514916862712e-01  2.7624085482930477e-01  8.9966879559823187e-02  3.0412095533535788e-01  1.1964804688733586e+00  4.2803850309912989e-01  1.4910170722215352e-01  1.3136377237871895e+00  1.4312189303538828e-01  4.3795581086524876e-01  2.8722771349190468e-01  1.1451359476364202e-01  5.9302431289649660e-01  7.1645034803197749e-01  1.1121084798494025e+00  2.8644512798080252e-01  2.6976611589817917e-01  1.4043131332274120e-01  3.0180880510269104e-01  3.9030568817516936e-01  2.7137940599013871e-01  5.5343089723637684e-01  1.5869337375795214e+00  3.6443645349926945e-01  1.3885443335474673e-01  1.3461625690938168e+00  1.4258089194596552e-01  1.5993705289629050e+00  1.1533246651310505e+00  1.2148020329630940e+00  1.2413796499890960e-01  8.1185681267558263e-01  3.6938175092529768e-01  1.0107048803784082e+00  9.8296951982157932e-01  1.2669008665541154e-01  1.1480089214342171e+00  8.9615203343329863e-01  1.6081199217852166e-01  6.6535206233126354e-01  1.6785500098706292e+00  1.3557766112853615e+00  1.1849871761670147e-01  1.5240707454816997e+00  1.0868006972518104e-01  6.7321194209414703e-01  1.1831005980607039e+00  1.6884380722857735e+00  2.6984166026560863e-01  6.0554256021741704e-01  1.2239639406253393e-01  4.6577074521090839e-01  4.3552912895522766e-01  2.5481769315609476e-01  8.0829649617924881e-02  2.8521135993681906e-01  2.9906009968030106e-01  1.1748382773514114e+00  1.4531949089816789e+00  4.2912500677074128e-01  5.7039060323793633e-01  6.8231003793316158e-01  1.0504774658170437e+00  6.2337138695644945e-01  5.0705190147834001e-01  2.7295753761474661e-01  1.2882279318056461e-01  1.6162236181567216e+00  2.1753746205494573e-01  1.4789686881857700e+00  9.4900164991559310e-01  1.6719059906377505e+00  9.7949857844680166e-01  7.6893969799244377e-01  8.1677329315198599e-01  5.5535098374429914e-01  1.3551526078963169e-01  9.8162222759905132e-02  2.8345842043383435e-01  1.0291855115280732e-01  6.6517165381175414e-01  8.8705056361892176e-01  1.0231118996364617e+00  9.3403046370124576e-01  7.9672719187567553e-01  8.7870372670144015e-01  0.0000000000000000e+00  2.4010020908332547e-01  2.4284048330018190e-01  2.9585050289038328e-01  7.6545790674107517e-01  1.3413639306040290e-01  1.0156891037194817e+00  3.0063161525671411e-01  3.0200850443120331e-01  4.5735955694932529e-01  1.0073200206979021e+00  4.6702162687941018e-01  5.4017266743693204e-01  9.6514311360098348e-01  1.0614287373503004e+00  2.5797575507066572e-01  2.4149454340486268e-01  1.5565643868116115e+00  1.5848691883357853e+00  1.4808754342279160e+00  1.5673470044467588e+00  9.9628158173242010e-01  8.1651336246678821e-02  1.6025538957992100e+00  1.6570480388292221e+00  1.6723670158370139e+00  1.6419251151768051e+00  4.0781724804965108e-01  9.9575598188962255e-01  1.1155633493673188e-01  5.9624924265942347e-01  1.3900977419291587e+00  2.5437639052395683e-01  2.6632557411575553e-01  8.1400247604602560e-01  8.6691764852617670e-01  8.8464416907658716e-01  3.0468604582029507e-01  6.2926928958930595e-01  1.0679472373354706e+00  1.2242519273115273e+00  1.0406691314618617e+00  9.6678057385691629e-01  5.6918196375580021e-01  8.2307838075316761e-02  7.8489809207904293e-01  3.9435889023583626e-01  2.3792037900304949e-01  3.5752376863185475e-01  1.1932924823835508e-01  1.3967494280914927e+00  1.5101233529722571e+00  0.0000000000000000e+00  1.0706984685503473e-01  1.2310697813000337e+00  9.6909602119334326e-01  4.0484758027021656e-01  1.5717664162329632e+00  6.5434672071516553e-01  1.4700938194617637e+00  5.6958567490500522e-01  4.7454383639590192e-01  4.8634860336601449e-01  1.5161572577281188e+00  8.3020576353379605e-01  1.4868507596029175e+00  8.7022062627622898e-01  5.3331281286148058e-01  5.1833673352446030e-01  4.5510189761787506e-01  1.4945806613089729e+00  2.9769404087028883e-01  7.7532572635091390e-01  5.6529668014646095e-01  1.6646697692125698e+00  5.9323541198844176e-01  1.7088332106568560e+00  1.4239886295096982e+00  7.2170438886901378e-01  6.6921760788862605e-01  1.4953078928962740e+00  8.2367207972332643e-02  7.8167789880916561e-01  1.5679934104156525e+00  1.6402737853190841e+00  4.6771409666597380e-01  1.3241103022381734e-01  1.2006436376067939e+00  2.7779187342191142e-01  1.2903556053286325e+00  2.6196732787650034e-01  6.7139529818700250e-01  7.5112969015194264e-01  3.0572454575428154e-01  2.9997282989473872e-01  1.5414825894344881e+00  2.7979909026353950e-01  2.5328476710157466e-01  1.0359588361542799e-01  9.0738461633519063e-02  1.5624135931128895e+00  0.0000000000000000e+00  1.2222673115265716e+00  6.5711651235407043e-01  1.5375239302427540e-01  1.3740053787972919e+00  </DataArray> 
</PointData> 
</Piece>
</UnstructuredGrid>
</VTKFile>