<?xml version="1.0"?>
<VTKFile type="UnstructuredGrid"  version="0.1"  >
<UnstructuredGrid>
<Piece  NumberOfPoints="1134" NumberOfCells="2149">
<Points>
<DataArray  type="Float64"  NumberOfComponents="3"  format="ascii">-0.5441219212998575 -0.358688083414564 0  -0.5765776306118481 -0.3686864440037019 0  -0.5569902787287407 -0.3268101618816875 0  -0.8410975717287933 -0.1395072905294205 0  -0.8354859562490059 -0.1121393047518148 0  -0.8160414078151036 -0.143940225846131 0  -0.2532586164762539 -0.4337438936396583 0  -0.2604143965391758 -0.3998650934601126 0  -0.2797158256545105 -0.4216369957322594 0  -0.1025954134604321 -0.4546232205523414 0  -0.1266730491007733 -0.4918819546073589 0  -0.09691916730404182 -0.4847005572060625 0  -0.7940852375801325 -0.07137316872466712 0  -0.8129656909437549 -0.04165552122524915 0  -0.7656060483003411 -0.05182846953038278 0  -0.4373093509364797 0.001634310771041625 0  -0.4640165526929844 0.008695773119353517 0  -0.4329343824233777 0.0290702357416256 0  0.1199221538977548 -0.9000079375435778 0  0.1431677361889669 -0.9417704170872273 0  0.1056882459418261 -0.9304575809500495 0  0.06824102899309431 -0.8796965027637446 0  0.0519845080383419 -0.9104794197143635 0  0.03857802175663441 -0.8837154177433899 0  -0.03165678354576521 -0.2907079637490915 0  -0.04714016004606073 -0.2525292510384027 0  -0.06022108807420518 -0.2800632191856926 0  -0.09822467029515634 -0.7285165233009198 0  -0.1119313494050668 -0.6971613808680818 0  -0.1326310079111961 -0.718115325281744 0  0.3007311546569934 -0.7132751337163624 0  0.268649511610813 -0.7227605910392395 0  0.3051159099885882 -0.74565385731203 0  -0.3666163925164496 -0.5816141831357999 0  -0.3691133504593386 -0.6228377920227477 0  -0.402301941823315 -0.5984340698406342 0  -0.3913506256423302 -0.5142670598452614 0  -0.4250310656908753 -0.5266367026041526 0  -0.4159211932663701 -0.502553863198151 0  -0.2727357442370261 -0.1139698713880369 0  -0.2943017683746092 -0.1565196089387307 0  -0.3063227185248055 -0.1236867182352507 0  -0.2968302873539247 -0.4466149365476618 0  -0.2799475439007661 -0.4802073939810227 0  -0.2624121975818798 -0.4593829131919249 0  -0.7454603311488852 -0.5423613958312614 0  -0.7103791313606034 -0.5507540080827487 0  -0.7228418780588967 -0.5253322268461387 0  -0.2155186650080483 -0.4084486310043501 0  0.1877994808039191 -0.4789624818228146 0  0.18857227839039 -0.5115637934749382 0  0.164906824444952 -0.4974715723303403 0  -0.5535428208305013 -0.2292849437422536 0  -0.5648012582384903 -0.2696014635242177 0  -0.5917829336642244 -0.2371162115705051 0  -0.3350033003568829 -0.7359157713821145 0  -0.3584096184419623 -0.7678723640737219 0  -0.3283212549976047 -0.7709913427707766 0  -0.166193953523619 -0.4717314232244936 0  -0.1702025126876615 -0.4295335658824921 0  -0.1385274804499625 -0.4478139398932881 0  -0.8478530373173159 -0.046397161777502 0  -0.887198166494877 -0.0655626578819532 0  -0.8577071879977455 -0.07267113318337655 0  -0.3099359594350449 -0.7950125531888582 0  -0.2751475593023677 -0.7596201914282705 0  -0.306130994928509 -0.7504333759224151 0  -0.274329400818586 -0.8766984697653405 0  -0.3038839355727364 -0.8409778359044735 0  -0.2629258197877798 -0.8371766448902915 0  -0.5553672154460828 0.1314190645461342 0  -0.5461213685775101 0.08606836292998724 0  -0.5703826334799396 0.1047399587464832 0  -0.3455696877361558 -0.4362448378226669 0  -0.3258580942965404 -0.4093110514399137 0  -0.3609297973707213 -0.4075234269722106 0  0.0815758327469593 -0.2844987878142674 0  0.1038721286438136 -0.3192060348676103 0  0.1154745574315511 -0.2708647663994368 0  0.08604300669319788 -0.3545557692735667 0  0.0643116231438611 -0.3207705529051588 0  0.1295464534015014 -0.3939636575994285 0  0.1064338617198637 -0.4124464014104867 0  0.1448361757922854 -0.4208559592839465 0  -0.3039688822958979 -0.06416621281764143 0  -0.2711500678832953 -0.07828007751554661 0  -0.2754333760943877 -0.0480766159912839 0  -0.8852110950197181 -0.2137091567995184 0  -0.9236289974331147 -0.2217362706346047 0  -0.885122883614721 -0.2467618146896367 0  -0.7301573753217775 -0.5809193455547783 0  -0.7209730744814395 -0.6238872753123897 0  -0.6950428051256249 -0.5983052377397224 0  -0.6979193891197244 -0.3546402351623636 0  -0.7138531650202711 -0.3307417459363939 0  -0.6743728412343886 -0.3384522276757841 0  -0.8291530868949156 -0.3094176941438118 0  -0.7896920172208287 -0.3008184215994915 0  -0.8053238789699632 -0.3239263958397401 0  -0.642138544674596 0.01257226564310446 0  -0.6878262986643295 0.02886723136166872 0  -0.6526160876609264 0.05539242199523189 0  -0.1266635457260406 -0.08674110354568812 0  -0.1635254523745491 -0.08816857548143278 0  -0.1325884900385813 -0.1135548225961865 0  -0.1706755439590506 -0.1568763186035039 0  -0.1258516062977613 -0.1401761466032385 0  -0.1455336670512015 -0.1721333993142492 0  -0.4071712888596457 -0.1971673901732101 0  -0.4206722921022882 -0.2196895306739997 0  -0.3863062381333997 -0.2122001525785641 0  0.1253379956719456 -0.8371358306598619 0  0.1322411385722026 -0.8061167926585079 0  0.1479475933651601 -0.825889841457792 0  0.2934164918890293 -0.8612774348549732 0  0.3227623235642592 -0.871538612125301 0  0.2822172595041592 -0.8910264873869124 0  -0.2061434166370174 -0.4520053066724423 0  -0.2333317737902565 -0.4522421037727033 0  -0.1571382082759987 -0.7950905585620359 0  -0.1218264222929869 -0.8096543748250079 0  -0.1458876500424629 -0.7688446150262466 0  -0.6774939983300903 -0.6302248068985857 0  -0.6463983005318535 -0.6642643784626333 0  -0.6470760980630753 -0.635376377384978 0  -0.9238680557959388 0.1659280723833087 0  -0.9355506157828866 0.2068678302057455 0  -0.9051323095323698 0.1934112459210854 0  -0.6291120070625913 -0.03469761255245083 0  -0.6686754428094558 -0.02017057174366552 0  -0.614649649400687 -0.2054816055707221 0  -0.6359155503292063 -0.2424224662444199 0  -0.4738807575056957 -0.01710803163056955 0  -0.5057545180527914 0.01973141337738394 0  -0.5106957648776452 -0.0138485558013659 0  -0.2270263162209431 -0.9111383718152852 0  -0.2409410440392607 -0.8805449402730079 0  -0.2087104940359062 -0.8843467210900062 0  -0.03649879830564495 -0.7024508719317977 0  -0.05434316291145553 -0.7463128781214077 0  -0.06837436388434862 -0.7179116564338537 0  0.02271111445801087 -0.2466006138022283 0  0.04921455287866645 -0.2136283899225227 0  0.001287880775235811 -0.213280315875006 0  -0.08819145914922825 -0.2560134861104798 0  -0.08294274772807189 -0.2116891776520932 0  -0.1174923456135461 -0.2244044812744155 0  -0.5416135842843132 -0.4433680349964033 0  -0.5466266768312872 -0.4074183480198355 0  -0.5764599568157619 -0.4465298604780202 0  -0.5723784974555806 -0.7508609640271169 0  -0.5578509213974128 -0.7135211595210424 0  -0.5853593329972577 -0.7221437485714772 0  -0.2120900412591529 -0.4820426978058877 0  -0.1866638372586035 -0.4879174965664346 0  -0.2344655869365065 -0.5518887928560327 0  -0.2232202113522217 -0.5843276522251416 0  -0.2019937614081083 -0.5441247067071635 0  -0.4975666954863948 -0.134795490103003 0  -0.5060921069087164 -0.08984808156695877 0  -0.5428072582908655 -0.1224237198472427 0  -0.3820378504744532 -0.07720900165447629 0  -0.3768681022823627 -0.03162498317288738 0  -0.3450701945451619 -0.05831639246971808 0  -0.5815381566199812 -0.1488753121763688 0  -0.6037984335336571 -0.1128166049525345 0  -0.5730811055580373 -0.1162124343825699 0  -0.7829900343778728 -0.3406456350858423 0  -0.9938441702975689 0.07821723252011555 0  -0.9907662554463532 0.1173258487801733 0  -0.9615686525209594 0.0953525208886026 0  0.0231928155670889 -0.1802746947302631 0  0.02304601464950326 -0.1450050219121411 0  0.004161121639675046 -0.1627187673287056 0  0.1294695806058722 -0.1777167641614958 0  0.1199760160677406 -0.1471804808004611 0  0.1015414005360553 -0.170729792421993 0  0.01585239978995566 -0.3534535003367468 0  -0.03178540446998922 -0.3576696617950668 0  -0.006497935904761709 -0.3721547028134982 0  -0.5428943701632762 -0.5556008459889474 0  -0.5625322794123481 -0.5239646311849037 0  -0.5344364592045275 -0.5204671722590559 0  -0.5770363405682046 -0.5686103056888767 0  -0.8840529801908102 0.07503033614843499 0  -0.854299198160419 0.05793764956431513 0  -0.8800080944261081 0.04762837752702911 0  -0.1174909263566684 -0.7718530525879488 0  -0.1763497559915594 -0.8818881596967517 0  -0.1698226233396077 -0.8378079409605544 0  -0.1937651770766264 -0.856786030724175 0  0.2529312799413386 -0.8012992728399679 0  0.2975684718453496 -0.8148220276284073 0  0.281642659294784 -0.7869587443019139 0  0.2144627031643363 -0.8917499236169515 0  0.2237873953233911 -0.9306213313090586 0  0.2347105033463606 -0.9074469009724188 0  0.02990886030073693 -0.6935332302827742 0  0.001158975109081618 -0.7311595646329223 0  0.03909134584814009 -0.7413311838754355 0  0.1588281316310452 -0.6615667801666836 0  0.1163965659875906 -0.6560203066685862 0  0.1406579619500511 -0.6957617206677086 0  -0.1241303955199356 -0.5682811077586559 0  -0.1227163133898359 -0.5343224432690959 0  -0.0875844305370822 -0.5509712758131395 0  0.2964390745302059 -0.4640277723462716 0  0.2569474812884434 -0.4728699081009705 0  0.283870811463501 -0.4866722052249291 0  0.2728222534553556 -0.5100957178319351 0  0.2455628306779195 -0.4973926927016669 0  0.2660995786479711 -0.5470486645584501 0  0.2465825874663043 -0.5244100450920918 0  0.2397701647893647 -0.550015317190814 0  0.0825405358755302 -0.6298483683324381 0  0.0877814960857464 -0.5885354120358075 0  0.06444242247063409 -0.6065635301263742 0  -0.6485729167868159 -0.1991468077150175 0  -0.6302378419866136 -0.1751544796858254 0  -0.7598339638778754 -0.3162715135673669 0  -0.7543728454763795 -0.2877235541198104 0  -0.1597243371445307 -0.1177650834275732 0  0.0455101775939576 -0.1178143478783519 0  0.01379263872750023 -0.1184911964587452 0  -0.019854766658668 -0.570384483292773 0  0.01002779297466803 -0.5953415153613334 0  -0.01592059019181793 -0.6089086201959784 0  0.09132515280281757 -0.6906991960991645 0  -0.4090925062851792 -0.021831
[...]
<PointData  Scalars="f_2282-2"> 
<DataArray  type="Float64"  Name="f_2282-2"  format="ascii">3.1319338125397045e-01  2.8244362067312090e-01  3.1853947060734256e-01  1.2546034879964624e-01  1.3427633898721708e-01  1.4755506528601967e-01  4.4813203882870278e-01  4.6915499339531125e-01  4.4494310483581040e-01  4.7847584547504535e-01  4.4330498391959638e-01  4.5485543928611705e-01  1.7633926544961834e-01  1.6087485957514114e-01  2.0438603328243315e-01  5.0170875753956701e-01  4.7991044812792416e-01  5.0417989020044285e-01  7.5700315317847738e-02  3.7897195068106307e-02  5.1530875828366053e-02  9.8764849142526492e-02  7.2352140230009770e-02  9.6965383480309711e-02  6.0251001955574357e-01  6.2209320167316906e-01  6.0588533179052384e-01  2.3477290253612815e-01  2.6208086774263128e-01  2.3909446560270664e-01  1.9818528705236496e-01  2.0091506037987028e-01  1.6860574608388720e-01  2.7944077994210920e-01  2.4521410264242621e-01  2.4777514801651049e-01  3.1825669227746844e-01  2.8955943488197960e-01  3.1248620826018808e-01  6.0043688916876747e-01  5.7723730860362121e-01  5.7889473621326426e-01  4.1884729768231371e-01  4.0105396679216787e-01  4.2475607349945504e-01  6.4194131403318963e-02  8.4067644966320382e-02  8.8615457546313156e-02  4.8220281638996604e-01  4.3753554018217744e-01  4.1071300175907383e-01  4.2905114509264919e-01  3.6190363299922740e-01  3.3736920205181642e-01  3.2631390635050733e-01  1.6627076428987353e-01  1.3005526956877114e-01  1.3860166577914176e-01  4.5003366964461977e-01  4.8192689335221184e-01  4.7624821624999369e-01  1.2863064723368173e-01  9.2443847350209607e-02  1.1808530602583898e-01  1.2509232085664332e-01  1.6655536767672122e-01  1.6399197183406874e-01  6.6980839253221236e-02  8.8542515898982599e-02  1.0300865399522723e-01  3.8773428365657625e-01  4.0388323843584423e-01  3.7954831480225798e-01  4.0057283462737642e-01  4.3009945885988177e-01  4.1130296989789022e-01  6.0049452686153915e-01  5.7554174687491155e-01  6.0132608650989683e-01  5.5577893986198168e-01  5.8101475306651829e-01  5.1936612635971680e-01  5.1034584972388897e-01  4.9530519272716039e-01  5.9135700754661291e-01  6.0818122036435529e-01  6.0971893410519529e-01  7.3839050495271674e-02  3.9735405958499136e-02  6.6605213699202970e-02  5.4469849035068317e-02  3.6464833839429292e-02  6.8185197619344592e-02  1.8999756172043489e-01  1.8607848427806087e-01  2.1639653574289985e-01  9.6587185136598849e-02  1.3252490545130144e-01  1.1143031801459219e-01  3.2214623452454422e-01  2.7857810644627790e-01  3.1005813518026853e-01  6.6661424738317165e-01  6.5483218618281069e-01  6.5907208837864428e-01  6.3505858455360320e-01  6.5417357235986962e-01  6.3746282423373635e-01  4.8957207824131799e-01  4.7132139834886905e-01  4.9875495533533315e-01  1.3100631407394264e-01  1.5844082309670271e-01  1.3759757634114989e-01  7.4513963906452374e-02  5.7542943036443160e-02  5.3215708246917848e-02  4.5273764011845624e-01  4.4223902135698667e-01  1.6422213862326515e-01  1.5647382453336403e-01  1.9011765303688580e-01  6.1316944524999147e-02  5.9890413549021852e-02  7.6858050789416446e-02  4.9935828311125890e-02  3.2745554809051308e-02  6.0680027586354816e-02  3.3321739914759674e-01  2.9699010455070102e-01  3.1645396678742116e-01  2.8625155266837404e-01  4.7180459456643220e-01  4.4497175709369002e-01  4.4058896515677981e-01  4.8963349703874920e-02  7.1585564303042568e-02  7.5624519613854899e-02  2.6448123783999211e-01  2.2220996395888121e-01  2.4772868274611390e-01  6.2707042566668214e-01  6.4081877494511064e-01  6.4351065033775579e-01  6.1476224040079841e-01  6.3689785239744467e-01  6.2415813736659831e-01  2.6769535964111102e-01  2.8502597862687967e-01  2.4006193467154993e-01  4.5170167829446835e-02  7.7953790776111254e-02  5.7065468694770145e-02  4.2714819299390971e-01  4.3060354369281723e-01  3.6111088844467415e-01  3.3769361312180629e-01  3.7900110660913872e-01  4.3689446546244443e-01  4.3811849046738865e-01  4.0065511961533334e-01  5.3796144781237965e-01  5.4645576265739981e-01  5.6606267277910272e-01  3.6090451308224514e-01  3.4804684307950801e-01  3.7504286614631849e-01  1.2453192342691718e-01  0.0000000000000000e+00  0.0000000000000000e+00  2.6023920500252873e-02  6.5665318819862994e-01  6.6844798426436525e-01  6.6303717671974272e-01  6.4058493370496072e-01  6.5312054962695287e-01  6.4949240727251289e-01  5.6331842420196909e-01  5.6008888569598370e-01  5.5035230134952318e-01  1.9542168055962791e-01  2.0289233325338901e-01  2.2467824682599183e-01  1.6452267234554377e-01  9.4395250888741747e-02  1.2243630865038517e-01  9.9579669690626191e-02  1.9182970126246338e-01  8.3590243273519521e-02  1.2376567757512581e-01  1.0198468692142053e-01  1.3676465187594303e-01  1.1205120193734298e-01  1.4097975448922342e-01  6.8168110731480741e-02  3.3357906575209068e-02  5.0532535699716254e-02  2.7323587404340682e-01  2.3831822372351846e-01  2.2782806759098753e-01  2.8613059647783595e-01  2.9955811652591485e-01  2.5852897766009336e-01  3.7789909967487822e-01  4.0799931885753415e-01  3.9928880290242585e-01  4.0571534334133341e-01  4.1694075494822491e-01  3.9439367449682677e-01  3.8077811195471839e-01  4.0214166179597932e-01  3.5327622382880980e-01  3.7978766534295416e-01  3.6117507441791596e-01  3.2855229067661346e-01  3.6575410441714695e-01  3.5170927806962587e-01  2.8804045629831171e-01  3.1079836487914242e-01  1.5248162261204365e-01  1.6693618347426495e-01  6.4957174805330664e-01  6.7481261691197980e-01  6.7624374238280438e-01  3.8780963203989199e-01  3.6533960209676436e-01  3.5253441992128492e-01  2.7092679352457022e-01  5.2290551485176751e-01  5.2798532075207105e-01  6.0327633047252527e-01  0.0000000000000000e+00  0.0000000000000000e+00  2.4258746730825974e-02  6.5929318988650509e-02  8.7143734623694957e-02  6.0080011972169008e-02  1.7118289879577339e-01  1.9113887698051496e-01  3.4560300287625877e-02  3.5931561864249485e-02  1.7282060628920543e-02  4.3672054980371727e-01  4.0396914867913425e-01  4.1230888207848165e-01  4.5148063550445083e-01  4.6907779443319314e-01  4.4317517116427552e-01  1.5571084782614039e-01  1.1895642692741311e-01  8.8961398155792640e-02  1.0136309198898868e-01  6.2121330835794464e-01  5.0657840640381979e-01  4.9225763749316898e-01  4.8539704649188881e-01  5.2911144903206253e-01  5.4580831978997091e-01  5.3895914474989481e-01  5.6234419236095712e-01  5.8556663256360586e-01  5.7996538142009402e-01  2.5803847736574831e-01  2.2364572572285377e-01  2.4520046206607682e-01  3.1680835498420290e-01  3.1928908234764575e-01  2.8936789591020234e-01  2.1489916750885937e-01  2.1606524109548886e-01  2.1654337980858832e-01  2.1670422357380523e-01  4.7077915416658367e-01  4.8207502692774884e-01  4.8985099263221360e-01  5.2529102411002071e-01  5.3919566281947795e-01  5.0385211270073549e-01  2.4200376711133204e-01  2.2024446021768826e-01  2.1250980617051696e-01  4.0115273186413264e-01  3.9164727340107369e-01  4.1966985463644557e-01  3.1454458614351249e-01  3.0220522757063384e-01  3.4467290218811991e-01  3.0850677171816604e-01  2.7533995147339324e-01  3.0882659498769854e-01  2.4212676735169830e-01  3.4829947656593402e-01  3.0782608550700447e-01  4.8180614366970839e-02  3.6848785297024109e-02  7.0161371121801833e-02  5.3781273774051896e-02  9.2664051053430146e-02  6.7596373209087485e-02  8.7791572332126200e-02  2.6940926243069097e-01  1.6304777770891665e-01  1.6236048998702465e-01  1.9890331002764636e-01  2.6934153002680677e-01  2.4724217475607085e-01  2.3512717427265833e-01  2.0903286667747339e-01  2.0157910077096744e-01  3.3990478058783830e-01  3.3486523752470615e-01  3.1374084659559881e-01  3.6401548483871415e-01  3.4156099624588093e-01  3.3899365071601101e-01  3.7460901868187330e-01  3.5147577119298917e-01  3.6292300572862274e-01  2.6829891010380480e-01  2.9110812434974681e-01  2.9496675110699228e-01  1.3382094182091203e-01  1.1321218202046081e-01  1.4217318630896073e-01  1.1478236389069209e-01  2.5234773383126935e-01  2.8461374882314255e-01  2.5258213469480689e-01  3.2026102826203556e-01  2.7457393239893035e-01  2.5083276759649609e-01  2.9298014764792879e-01  2.1361240657589040e-01  2.2288463667863898e-01  2.4655956155290079e-01  2.2899514558606332e-01  2.5690498033197068e-01  2.2549674154045329e-01  1.8220514774853208e-01  1.7185304645421962e-01  2.0221270623607077e-01  4.1594520337289026e-01  4.1027283922911212e-01  4.2926109391787892e-01  4.5474782540327580e-01  4.6581498407796790e-01  3.1671499972260320e-01  2.7459548091806424e-01  2.8370663658995710e-01  7.6412745706201643e-02  8.9346124479630293e-02  6.3644926950364236e-02  1.2391539426032008e-01  1.2451921876084926e-01  5.6190718127950130e-02  8.1727449180404629e-02  5.5818211356349179e-02  0.0000000000000000e+00  0.0000000000000000e+00  2.8200534290294260e-02  1.1706902239605824e-01  9.2798942546498606e-02  1.2838805298090833e-01  5.0598359764525724e-01  4.0506786295484581e-01  4.3726648875973967e-01  7.3471352278404317e-02  3.5038914499559121e-02  5.0263380498593954e-02  4.5247675509205276e-02  7.1537776759776309e-02  0.0000000000000000e+00  3.0139041443570099e-02  2.6116828584192519e-02  3.4906490964596715e-01  3.0520127403874631e-01  2.7030987702314779e-01  2.0040334808987689e-02  4.2265470774399655e-02  0.0000000000000000e+00  2.0393120486794866e-02  6.4297870115625355e-01  6.2119478080774171e-01  6.2923508223564839e-01  3.2847382058353869e-01  3.4034272326103393e-01  3.1061952335801263e-01  3.5317337240026575e-01  3.2718295607775222e-01  3.7229913937490089e-01  4.2606816220758287e-01  4.3612721275788707e-01  4.1288850825298218e-01  4.9202610389605883e-01  4.8436304451616713e-01  4.6059127072728706e-01  4.9069519631781755e-01  4.7292003455420689e-01  4.8441161838999341e-01  4.9096184605257231e-01  1.3843536803356918e-01  1.4566881239749610e-01  1.2628529071825578e-01  3.0716999409496909e-01  2.7436747009026508e-01  8.5997128870331938e-02  6.0921480853460636e-02  1.9444912732911910e-02  6.1440127100804420e-01  6.2445503206900455e-01  3.8530123363801259e-02  1.9694628336875436e-02  2.7305791594359929e-01  2.4884354802534914e-01  4.7032853385483392e-01  4.9544418952825287e-01  4.6706743884952601e-01  4.0207325988359377e-01  4.2695133086902637e-01  3.9782475902711728e-01  4.1572690627445325e-01  4.3134484502244902e-01  4.5318628088258101e-01  4.1729348783847253e-01  3.3761160111959754e-01  2.9406895459032534e-01  3.0875668061181610e-01  3.2957731948612540e-01  3.5568709497864393e-01  9.4883517010068863e-02  1.0969529585946929e-01  4.9710973754271709e-01  5.1735666405792280e-01  4.9474049733802350e-01  3.8967163148572598e-01  3.0244334822778146e-01  2.4971678410366227e-01  3.5316034379885793e-02  3.2816126879726910e-02  2.4009286066458840e-01  2.5035098191356109e-01  2.7997370945043604e-01  1.3379647817925938e-01  1.2835195577445566e-01  1.2991952485789265e-01  1.5897908617366144e-01  1.3725209516867654e-01  3.2898575012221813e-02  1.6176394051748247e-01  1.3889465489129638e-01  1.5895933862435371e-01  1.1385678445511832e-01  3.5177461196480395e-02  1.8127223624732697e-02  3.9164014648416692e-02  2.6192874774303616e-02  5.1438692931479013e-02  0.0000000000000000e+00  0.0000000000000000e+00  2.1541313284868885e-02  4.9978527373856919e-02  1.0251914465267860e-01  8.9980578710941145e-02  6.8984363750692890e-02  3.7710965749011303e-02  4.9002409255285435e-02  2.2105871811899071e-02  5.9712151695112153e-02  3.9821645085766390e-02  4.5151611276734942e-02  3.7676161882071652e-02  6.2769149491788911e-02  4.4399048702913765e-02  5.9863908408756848e-02  2.3585965065673734e-02  5.6129087877740613e-01  5.5612902910651185e-01  5.0128755270766523e-01  5.1776612313027659e-01  8.5389559192438597e-02  1.8899872031282219e-01  1.4372559894490872e-01  2.4427761580199467e-01  2.1237011268819964e-01  2.1187858665712736e-01  1.8819872703602389e-01  5.6712568701116950e-01  5.4687834528279189e-01  5.4519707921567584e-01  5.7121422455870485e-01  5.3668083746405126e-01  5.5390808762992172e-01  5.3196832785783210e-01  5.1001165311875984e-01  5.2984629469933953e-01  6.6222877848735273e-01  6.4999979448214873e-01  6.4242965751218095e-01  6.2783566492595455e-01  5.9756594039094535e-01  5.9356581708737222e-01  1.5785456457128161e-01  1.3372474685808589e-01  1.5744181109958771e-01  1.1991278721644331e-01  5.8935230767377000e-01  5.9207839766469406e-01  5.7204482019100544e-01  4.2889299937986997e-01  4.6046892595913885e-01  4.4736488973573202e-01  5.0804831722127364e-01  4.4919754636928616e-01  4.4118362338780837e-01  4.4056254498743913e-01  4.6803767380682698e-01  4.6672385436023872e-01  7.9973182890311675e-02  5.8024028983136494e-02  7.6480299871247340e-02  9.6514696895120711e-02  6.6829931340320253e-02  6.4776302486211823e-01  5.0290347892070464e-01  5.0198278805723195e-01  5.1900107120233085e-01  5.2953249379023992e-01  5.2482967835760352e-01  5.2908611167077790e-01  1.7411479437159150e-01  1.3822811715151381e-01  1.4533288375420139e-01  1.4997677580477828e-01  1.1843371837361701e-01  1.4414225828324262e-01  3.5707002605782262e-01  3.6974493083184939e-01  3.3103020346000905e-01  3.7747639372220054e-01  1.7333804610550513e-01  2.1254711533917611e-01  2.0197336923589540e-01  2.5503409081876371e-01  3.6162078128258429e-01  3.8456081406214965e-01  3.8593048796761537e-01  3.8846537691472882e-01  3.6454041478445282e-01  3.1822400012209995e-01  1.9296814008803156e-01  7.0232385973308123e-02  3.0228878564418936e-02  8.9996112272270543e-02  6.7053541522354335e-02  1.9146598765205353e-01  2.1264637724221797e-01  1.8131564434640635e-01  1.0367145934664716e-01  1.3413434527665347e-01  1.1476245049690810e-01  1.6815004367335365e-01  1.5170400121642444e-01  3.6096840130697727e-01  3.7311295976128472e-01  2.8493058893476603e-01  3.8067665293649305e-01  4.0088900658019971e-01  3.7036014943546608e-01  3.6004405409847046e-01  3.7937238922065752e-01  5.3708844651263826e-02  6.5682436998213051e-02  4.3891533251681755e-02  5.0204129621918003e-02  2.4057168072414325e-02  1.6658610082878694e-01  1.4093890672579909e-01  1.7579599760210937e-01  1.9706107011737189e-01  2.2388196554200618e-01  5.9677134163126500e-01  5.7833503597532987e-01  5.5319456267890121e-01  5.3731824104150183e-01  6.2043338934717462e-01  6.1990959201632112e-01  1.3715958478087212e-01  1.6088295798627478e-01  1.1781426521829406e-01  9.4709447913091230e-02  1.8906822283751498e-01  1.5067745329526580e-01  1.0490851308819828e-01  1.1499944912869643e-01  3.0972118084229427e-01  2.8307823380967878e-01  3.0338165727856853e-01  2.2038458536871597e-01  3.2723342957728446e-01  3.0037411410766490e-01  3.0586131384440335e-01  2.9324011488987894e-01  2.7109013290520922e-01  3.8126040975366859e-01  4.0954335107503786e-01  4.0874998420257930e-01  4.3071836117564782e-01  4.6396361770723321e-01  4.7293505657073520e-01  4.7122876954864745e-01  3.5996019781054944e-01  3.9896084333737414e-01  3.7846447962577118e-01  3.9711440211925558e-01  5.6217571726029569e-01  3.8020029876558614e-01  2.8233317213412890e-01  5.9211732551372076e-01  6.0764320263157823e-01  4.0089175292650915e-02  7.6187712832391438e-02  5.2104530719354247e-01  4.9959015340952068e-01  5.1504811476500989e-01  6.0701923099279798e-01  6.2373120675200877e-01  6.0817872557438923e-01  5.9069618990653905e-01  5.9971801507178013e-01  3.6181449755784995e-02  2.8065514553886323e-01  3.0042176993633002e-01  2.5860182276257687e-01  2.2029172171721118e-01  1.9040167205917521e-01  6.5871510386277965e-01  6.5434412268794462e-01  6.6581446115279397e-01  6.7294733019285113e-01  4.0645268489481058e-02  3.0717260928315167e-02  6.1055591040333146e-02  8.5291801296615469e-02  1.1150724838906574e-01  1.0786112787052494e-01  7.9369322717975338e-02  1.8217506604235559e-01  1.9953953601858798e-01  1.7067222964185355e-01  1.9557778116503372e-01  1.9429678666210437e-01  2.2946151897242659e-01  2.3174636726256828e-01  6.2515321799363632e-01  6.2167329854646014e-01  6.3749556584458300e-01  5.7953492921811700e-01  3.4428030388819858e-01  2.2180319288998832e-01  1.6054242485931783e-01  1.4379405511535445e-01  1.4649743456247930e-01  1.5002017244196245e-01  4.1671245095599591e-01  3.7194482634353537e-01  3.2819207191046335e-01  3.3611692670078619e-01  3.8719279845116800e-01  6.4295745034676632e-01  6.4845902752845519e-01  3.4087356569391591e-01  3.6184543913923595e-01  3.5633454685909183e-01  6.3753477092338950e-01  6.3104604510995144e-01  6.2336513828196882e-01  6.1290595906586853e-01  5.9415079633954693e-01  4.8796810047936567e-02  8.0763624198945491e-02  0.0000000000000000e+00  1.9380835544230111e-02  3.7691638667945992e-01  4.0321373029257529e-01  3.8213902982733094e-01  3.5553705559062171e-01  1.9147282170515065e-02  1.1726480021207239e-01  1.0511400193293806e-01  2.1260954005620575e-01  2.4329349980758649e-01  1.2160223872968767e-01  2.1640291823473659e-01  2.9779163520223512e-01  1.9032730998799816e-01  1.9243644100891139e-01  2.2067010345688934e-01  2.0729975008089882e-01  1.6900468537314828e-01  3.8054274418971068e-01  3.5530657064545312e-01  3.7443097699246142e-01  2.7457230129227156e-02  5.8299213027606767e-01  5.7608026591420336e-01  4.9657590815474817e-01  5.1982809560260568e-01  4.7498625928733873e-01  4.5247305890121586e-01  5.2609021788359089e-01  5.4688563530635736e-01  5.4133888288936827e-01  3.4045704143318262e-01  3.3569193699648714e-01  3.6283834512362645e-01  3.8682624844363600e-01  1.3885423788771101e-01  1.6029954368590918e-01  6.3912495891627619e-01  6.4944080157670603e-01  1.1103132142705194e-01  1.3613678340994190e-01  9.4144392207297783e-02  1.1476839506302068e-01  6.7405396602879564e-01  1.9065347135050151e-02  2.1660690452956034e-02  9.1773633033506857e-02  1.7668714527129644e-02  1.6811619058212809e-02  1.7337057270495188e-01  1.9192411095257481e-01  1.4017992703949930e-01  1.3757777027652152e-01  4.2763215545352806e-01  5.3805232800428449e-01  5.1328708962963188e-01  5.3703847027881724e-01  5.3897397514995793e-01  3.8190000476233360e-01  1.2019699882324268e-01  1.0628861521641784e-01  3.4644129711376502e-02  1.6369062898566152e-02  1.1305826524879807e-01  5.0880980872872489e-02  7.0239762448807849e-02  5.4888355341893055e-02  5.3039058101705949e-02  6.0607192670419940e-01  5.8903530545172011e-01  5.9094116344452996e-01  5.7192039895137248e-01  8.0615565503651537e-02  1.0365651553222688e-01  1.1271267390970063e-01  4.4726499255752644e-01  4.5842433324788506e-01  4.9423532635960454e-01  1.1669441115095666e-01  1.7971597216205581e-01  3.9864200464043326e-01  3.8796644359170918e-01  4.1306217282092733e-01  4.3619334461899600e-01  4.7528620353932477e-01  4.5346041911357043e-01  2.1761968959902864e-01  2.6644513106561751e-01  5.0949169082719981e-01  5.2350614234364656e-01  5.3480079220438725e-01  3.3167436411041906e-01  2.8054897677306839e-01  2.0376897499021243e-01  1.7012530112047347e-01  3.5335297099406360e-01  3.8109566347059803e-01  3.4961020577386098e-01  2.4946025590548185e-01  2.2303260994508886e-01  2.8153625098485252e-01  5.7422533989494505e-02  7.3010325321062455e-02  5.4532073869705699e-01  5.7230455606540820e-01  1.5001557421713760e-01  1.1915216199354281e-01  1.0068718020815189e-01  2.4263581599448754e-02  2.2689476547981795e-02  6.0518741610363547e-01  6.1234339287275452e-01  5.6923546923908408e-01  2.9455882000180594e-01  3.8637024024087446e-01  3.3767513047190167e-01  3.3746873538440264e-01  4.3965170300071005e-01  4.7099210202287684e-01  5.4753567028766625e-01  5.6561469966272415e-01  4.1077790023076732e-01  4.4168278697529395e-01  4.2163715301090354e-01  4.3190385938256687e-01  4.0856570548757365e-01  2.7692189653121374e-01  2.5123140423777557e-01  2.2453205124635017e-01  2.4978130072512536e-01  2.9137545104888951e-01  4.0708984104824891e-01  3.8440723812494049e-01  0.0000000000000000e+00  2.5012972665618475e-02  2.4026126150887020e-02  0.0000000000000000e+00  2.2207406905018545e-02  9.5903678598031547e-02  6.6754099122380131e-02  4.9956323398878504e-02  1.8896942758137941e-01  1.8146477824452723e-01  2.1756138175500042e-01  2.3662518575137184e-01  5.9683011427301286e-02  7.0000391687908017e-02  2.5924456568237025e-01  2.827149559