<?xml version="1.0"?>
<VTKFile type="UnstructuredGrid"  version="0.1"  >
<UnstructuredGrid>
<Piece  NumberOfPoints="1130" NumberOfCells="2134">
<Points>
<DataArray  type="Float64"  NumberOfComponents="3"  format="ascii">0.2924965119749844 0.5806454640576162 0  0.2931357425666441 0.6158095738938106 0  0.2722845889387188 0.5986007514407707 0  0.06245154218797691 0.7943760977968389 0  0.05544056292684415 0.8360220202702611 0  0.02724914271240671 0.7995232918838924 0  0.1335850646589621 0.7291917770211511 0  0.09257890860895016 0.7227107754768907 0  0.1207009360036598 0.6914172198262521 0  -0.1127572484929876 0.6217075882064447 0  -0.09059232536756107 0.6461457043336694 0  -0.08244382822329682 0.6193610233350183 0  -0.1373197942797624 0.4432044140746515 0  -0.1708498639144158 0.4258289329533242 0  -0.1683718478273803 0.4550768101836 0  -0.2097608088645187 0.2706029166526365 0  -0.2553472029916841 0.2715809926304027 0  -0.2391685209522224 0.2307322500123088 0  -0.2612214313441482 0.4860827085271667 0  -0.2999268493360679 0.4942668376827834 0  -0.2761784895078877 0.5087930656610014 0  -0.6336799748740927 0.5412138273049375 0  -0.6367242063828276 0.4943077948128051 0  -0.6623691907668592 0.5109580860210953 0  -0.8189328877697528 0.4225545775266913 0  -0.7732510673161435 0.420047019447516 0  -0.7972043328982701 0.4010362957246634 0  0.09400378958013947 0.2055695036858353 0  0.1290725919584871 0.2207698374846717 0  0.1219808629418566 0.1890773044854493 0  -0.4309945018733153 0.5062643786080123 0  -0.4382089257601645 0.5497266439837095 0  -0.4119159386366162 0.5339223899750409 0  -0.6227781113910986 0.4494196041151011 0  -0.6567942943576646 0.4640171858672734 0  -0.6481157979026415 0.4373082602627743 0  -0.4712405913227501 0.1677045787871355 0  -0.5101607540755746 0.1422745461243285 0  -0.4855314936343032 0.1275817475248843 0  0.2162525383925422 0.08615652924307352 0  0.2246786184519418 0.05722134459703598 0  0.1858331413839794 0.06712133478128747 0  -0.395297655555004 0.5597085933417444 0  -0.393845571583094 0.5930343773993745 0  -0.3703409314215836 0.5744126151601694 0  -0.1732844607114084 0.7831016787925337 0  -0.2042612800303741 0.7831655859422791 0  -0.1887231468431922 0.8072354228488953 0  -0.2401164734357646 0.7642938074902216 0  -0.2007050285273371 0.7523935126534872 0  -0.2268594363809904 0.7369868775014541 0  -0.1696450233376555 0.7253721306646218 0  -0.2085138894959716 0.7108694539094691 0  -0.4304447217574816 0.7500053130336214 0  -0.4315890123179937 0.7095731294438389 0  -0.4566159372858562 0.7305137127660739 0  0.2068741599965308 0.6805917788483005 0  0.2050805379439151 0.7234446339117643 0  0.2218709634298657 0.7011057471390761 0  0.2162993597616463 -0.05864296304509958 0  0.1750354584180112 -0.06241539112817548 0  0.193720732252597 -0.0392358669981461 0  -0.0230893327402 0.1929077709269967 0  0.004761282153553419 0.1841053551365959 0  -0.0294157900699326 0.1671086648702482 0  0.1565461142119031 0.6738661189577495 0  0.1462519036200293 0.703786842447927 0  0.1808354785713632 0.6837740099682186 0  0.003584375230144248 0.8973914042388084 0  0.004168520773651397 0.9265977742636927 0  -0.02260959360525044 0.8990907582775318 0  -0.5553672154460828 0.1314190645461342 0  -0.5235028484586995 0.1112039343107129 0  0.1603091172319885 0.1987437044449037 0  0.1587220491624921 0.2266983155339805 0  0.1814480564065501 0.2139661830238536 0  -0.1528819986293607 0.1263255869844637 0  -0.1492482924853433 0.1580573615581254 0  -0.121785890413324 0.1264951045251249 0  0.06840700246376145 0.1813414697793323 0  0.05901930246285114 0.213188864059535 0  -0.1752833856350064 0.2330884014058902 0  -0.1463494540489943 0.2498979671367919 0  -0.1597540380916604 0.2128762917837419 0  -0.2666080625010207 0.8166860089768937 0  -0.2708315979539392 0.7816567174515252 0  -0.3125666401907646 0.8078345074970555 0  -0.404120413395211 0.790596968601049 0  -0.3736980272227576 0.8094398659945521 0  -0.3782485212331815 0.783550436492126 0  -0.6302032721917927 0.1842725605598824 0  -0.6662816078013655 0.1849757094845715 0  -0.6278359119408464 0.1559995968664962 0  0.04697055465782802 0.07164191122244783 0  0.03568486653295815 0.02782254432188264 0  0.07147362760462897 0.03813006809902156 0  0.07629170137027992 0.001199503106725944 0  -0.08254551195616064 0.2442760807068146 0  -0.1256264531238477 0.2318577153827438 0  -0.1100359059370774 0.2587079641700211 0  -0.2057340115688616 0.336734776516796 0  -0.1583351405483 0.3413766438249081 0  -0.1746963906066072 0.2991947239182672 0  0.2069802702871247 0.2191319025157533 0  0.2277242868701167 0.1958518940723663 0  0.2327020808785168 0.2211695803373901 0  0.08377029897187802 0.3968728637950909 0  0.09430952409275566 0.3649796683197574 0  0.1096177565212272 0.4086602604886229 0  0.1993614565197579 0.6303751881642145 0  0.2183947193733605 0.602039791860232 0  0.2244999519515443 0.6267009039980487 0  0.2603645391142563 0.6285756014906578 0  0.09969329332901172 0.7636117992424346 0  0.1302396754667923 0.7597935550942527 0  0.3054091438189218 0.7866902927858057 0  0.3357122182608844 0.7742694490625159 0  0.3340932520791566 0.8018765332110196 0  -0.3419627731396465 0.7347283846920364 0  -0.3520950571293062 0.7809111428238701 0  -0.3692699615099612 0.7343393389683085 0  -0.5840098151137766 0.2990048577514015 0  -0.6080756186142645 0.3165493008588801 0  -0.5823578507234605 0.3265486810853542 0  -0.7051763504253612 0.250234969313039 0  -0.7068111699962591 0.2244295694172429 0  -0.7307168990284388 0.2554584211146595 0  -0.4836131513794496 0.6232288808042636 0  -0.4928484342320275 0.5960519446409566 0  -0.5117044153203884 0.6291244044274967 0  -0.4409287066533773 0.6702178123895151 0  -0.4738508613963038 0.6572424830600011 0  -0.4501566366006438 0.6453775654719015 0  -0.3429952027518596 0.5223588630033167 0  -0.3206329923626178 0.5503883121993246 0  -0.3685624877363587 0.5418514467512064 0  -0.3893699539648601 0.6237039937970631 0  -0.3422033714709892 0.6265868844716567 0  -0.3644188643635339 0.6027670761648919 0  -0.6575050454237221 0.2288298014079799 0  -0.6447641122924658 0.2516770218638512 0  -0.6798884378325298 0.2427667040117376 0  0.2579067442312717 0.4688983724209494 0  0.2888513267043814 0.4378317642069166 0  0.2515399520834085 0.4316117661101545 0  0.2722069355506832 0.8284688529037881 0  0.2642325312678823 0.8678131532115284 0  0.2341417510346148 0.8335977078735048 0  -0.609195381974423 0.1346104521165029 0  -0.581512774190834 0.1459772283855625 0  -0.606311706240823 0.1720374621998764 0  -0.1137242964947925 0.7342494510189826 0  -0.1085533329295061 0.7711569775053645 0  -0.08842803878944591 0.7495212997310273 0  -0.09035277733789798 0.4919220888235711 0  -0.1387502465387686 0.4915819350525998 0  -0.1147755671194965 0.5236308404416747 0  -0.08799438577573623 0.3012994251470535 0  -0.08054411621706016 0.273239330540436 0  -0.06068658392917529 0.3120024979569823 0  -2.220446049250313e-16 0 0  0.03833101908736652 -0.01236714587332863 0  0.03332211297248573 0.1779883120077971 0  0.0553878700818049 0.1568128372514456 0  0.03879512812050209 0.1013532927181565 0  0.01956592186948998 0.06947958240077355 0  -0.3110288607107251 0.08135098352660518 0  -0.344921080983376 0.08229130413897219 0  -0.328161300472874 0.05287969798319995 0  -0.08860505921103043 0.5920506521433744 0  -0.1159536089414161 0.590966322597226 0  -0.1021964897951705 0.6788144063269812 0  -0.136261090104428 0.700646753224388 0  -0.1228430025016362 0.6531026549154566 0  0.1415956346790651 0.6023153900601184 0  0.1455023681906896 0.561880690090387 0  0.173814985803951 0.5850222891851874 0  -0.7039359164953137 0.1054244296900993 0  -0.7241549932545398 0.08547378493790607 0  -0.7240317325936491 0.1290401816176439 0  -0.7146836516968359 0.3927695373773623 0  -0.7171931948150422 0.4336007787289713 0  -0.7460250674529035 0.4301448157942048 0  -0.8336681057691238 0.345316635927459 0  -0.8219806880639507 0.3831114868492926 0  -0.8020922577552831 0.3633132148152522 0  -0.5618738577248394 0.6403651441164777 0  -0.5473882199946626 0.6849348980099506 0  -0.538289355892541 0.6573388026093229 0  -0.4824797505496254 0.3838810792864338 0  -0.5230731684421793 0.3642691414098798 0  -0.5137211790366101 0.3967288418064787 0  -0.09386743165719327 0.8868230745198202 0  -0.1334231263863611 0.8942731301668522 0  -0.1092845443900445 0.9137012029455377 0  -0.04523581318749946 0.8244439404340452 0  -0.0769396102945519 0.7908921470434424 0  -0.09343945562699482 0.8132315912754917 0  0.0455101775939576 -0.1178143478783519 0  0.07525030372245567 -0.08800061275601394 0  0.04261815316074052 -0.08518924674757319 0  0.1424349288786705 -0.03683910833544325 0  0.1406428911848698 -0.004598908502305238 0  0.1639118323293636 -0.01947543299796284 0  0.1859045193885197 -0.1024004418516471 0  0.19058579448583 -0.1427680390589207 0  0.216883382856332 -0.1337619999027692 0  -0.2373028979847076 0.5473261424768866 0  -0.1932653732436898 0.5665479687088435 0  -0.2062682446319116 0.5362814988625322 0  -0.2126522817199431 0.3845511360064228 0  -0.1866730065200072 0.3639012639806355 0  -0.4174180203574351 0.2086894809925613 0  -0.4048848604657676 0.1820574049833631 0  -0.4464806129667586 0.1834083348043779 0  -0.4568841982408385 0.1262359142486632 0  -0.4313452580001016 0.1582968730533858 0  0.07231769945658416 0.5196157514494713 0  0.03312463406788048 0.5008840041940618 0  0.06513249352082014 0.4842812410161731 0  -0.0004027730160685861 0.7771386075583826 0  -0.03905074592193825 0.7819032022368267 0  -0.02332525375120641 0.8059095547793576 0  -0.2649860329145938 0.1824261056420857 0  -0.3041191825682435 0.1773695031720618 0  -0.2803378790137869 0.1428742985583878 0  -0.2687508696165652 0.1158982906339185 0  -0.2514827659916298 0.1482915158136655 0  -0.322899042696953 0.1999682459755028 0  -0.3484887776281561 0.1655499381999704 0  -0.3515501295523116 0.2070651371825604 0  -0.3903979979922381 0.1564355708354559 0  -0.9163492829346521 0.2448659195690242 0  -0.9192152205576599 0.2847796305242293 0  
[...]
<PointData  Scalars="f_2282-2"> 
<DataArray  type="Float64"  Name="f_2282-2"  format="ascii">2.7258581962536998e-01  2.4669758210557688e-01  2.6642207559914521e-01  1.5314233349952869e-01  1.2017127084438187e-01  1.5027564619942910e-01  1.9801869718295151e-01  2.0856933313709744e-01  2.3045737961696933e-01  2.8752676755709911e-01  2.7065766374609307e-01  2.9309902933828957e-01  4.1716676937590702e-01  4.2088699785046357e-01  4.0150490696335556e-01  4.9683090313640849e-01  4.7855268060307538e-01  5.0250521125319414e-01  3.5111645974403960e-01  3.3064499339845832e-01  3.2996432803796694e-01  1.2376811804134548e-01  1.4575251305191833e-01  1.2121439089079068e-01  5.5674776680155719e-02  8.7057526606986818e-02  7.7918568444344610e-02  5.5487636694047393e-01  5.4200140450600409e-01  5.5528144182394601e-01  2.6063240254144415e-01  2.2943448224973406e-01  2.5284172061277610e-01  1.7613564884556593e-01  1.4707721814623578e-01  1.6529269127535035e-01  3.9059092354078806e-01  3.6856571181063430e-01  3.8912997099244373e-01  5.5212553673872511e-01  5.5266528069528753e-01  5.6565919637601714e-01  2.4404333696280756e-01  2.2207198209386564e-01  2.4527273316604734e-01  1.4865660301812830e-01  1.4301600027436068e-01  1.2723035873374547e-01  1.4971281505382958e-01  1.6743134710725208e-01  1.7393706090063168e-01  1.9521293055294361e-01  1.9853620624400750e-01  9.9089208728781727e-02  1.2598530259928212e-01  1.0157326258069670e-01  2.2255495141093987e-01  1.8924260133374374e-01  2.0309379518145237e-01  5.5565564715968163e-01  5.7047239528798355e-01  5.6568535476547510e-01  5.6709025124186208e-01  5.7095863799523106e-01  5.7518464048832108e-01  2.3855830142693599e-01  2.1640459277504137e-01  2.2590335113987564e-01  7.3902188611474393e-02  5.1942486023688582e-02  7.2029974557323698e-02  3.3636246771381517e-01  3.6404597255904492e-01  5.4234873125895300e-01  5.3169892096244697e-01  5.2984571672182235e-01  5.6578729690106733e-01  5.5846058367529472e-01  5.7340401888007564e-01  5.6756555454063518e-01  5.5686652418908178e-01  5.2461757972458700e-01  5.2534558356819949e-01  5.3707143403173940e-01  1.0356147331622370e-01  1.2863473598956920e-01  9.7966996899401151e-02  8.1228635154277140e-02  7.8481314481289810e-02  9.4766448881266438e-02  2.6761160169908738e-01  2.3864423463513146e-01  2.7529358765029993e-01  5.9579542575431710e-01  6.0099512130055432e-01  5.9631486637285103e-01  5.9742502757723426e-01  5.4088238899733676e-01  5.3858678700611340e-01  5.2961436649824067e-01  4.6456004325902239e-01  4.7630479428160633e-01  4.9445136559549335e-01  5.1938584432568824e-01  5.1982950460382926e-01  5.0868052302367639e-01  4.5711385148975292e-01  4.7590210178860015e-01  4.4541318477879721e-01  2.6359462856040672e-01  2.8052692514908156e-01  2.5989753586781228e-01  2.4792328035822073e-01  1.7463154226958852e-01  1.7414653537855648e-01  1.1534183224545565e-01  1.1554273286253459e-01  9.6108792855853262e-02  1.4222164518885014e-01  1.0542996138378874e-01  1.3279262040140583e-01  2.6778942511337767e-01  2.4370409945330351e-01  2.5824675354984927e-01  1.9254490202024310e-01  1.9790994208290721e-01  1.7126084702571681e-01  1.5945209482552214e-01  1.7177529275863382e-01  1.4153985493903182e-01  1.4870156896057921e-01  1.4218550494761628e-01  1.6107825449497690e-01  2.9300814508756240e-01  2.8348035051182635e-01  2.6847501030215892e-01  2.0312029003461191e-01  2.2046091538087018e-01  2.2834342287890816e-01  2.3526152657019239e-01  2.3818459963001556e-01  2.1355652040380055e-01  3.6414042542544661e-01  3.7235430928536151e-01  3.9113624030612726e-01  9.3362195567838646e-02  6.6458946866279719e-02  9.8176437106908779e-02  2.9415044087978132e-01  3.1361364664922597e-01  2.8836970446734628e-01  1.9681656136351916e-01  1.6764304070564776e-01  1.8694339232181204e-01  3.9063675783037888e-01  3.8281706045440916e-01  3.6344144536488160e-01  5.1272025089869022e-01  5.2806490497880820e-01  5.1038862442754751e-01  6.0279612013058570e-01  6.0116397464298099e-01  5.7168942323195493e-01  5.7630599526925042e-01  5.9131982295995111e-01  5.9772535536595184e-01  5.0867403807100431e-01  4.8936879879368073e-01  5.0229347242672828e-01  3.1423041387562040e-01  3.1116896628644508e-01  2.4301448072562756e-01  2.2058888916975386e-01  2.6084688858577665e-01  2.9805553745714408e-01  3.2876420592881289e-01  3.0481571035366989e-01  2.2244523946103900e-01  2.0774616741977420e-01  2.0298049818571440e-01  1.3783525345662295e-01  1.1997325294491783e-01  1.0190543695239547e-01  7.0220129603196291e-02  6.6328146423710363e-02  8.6949816019413415e-02  1.0916438253919782e-01  8.9795532463825725e-02  1.1093961642125835e-01  2.9985447961982914e-01  2.8312258480847952e-01  2.7342027006611003e-01  7.8414887896513491e-02  6.8657106775003071e-02  5.6425824769926115e-02  1.3016367410304130e-01  1.5477418379306304e-01  1.3555828118179081e-01  5.8768823325756891e-01  5.8990929382353441e-01  5.9406484356649414e-01  5.8221129935904314e-01  5.8371521943415661e-01  5.7681159354461875e-01  5.6045402818055312e-01  5.5015875252409141e-01  5.4233695798556547e-01  3.1575607894185748e-01  3.1439240998675211e-01  3.3337610130192230e-01  4.3439456239225949e-01  4.5494818758537453e-01  4.1519366338221175e-01  4.3119536459403590e-01  4.0344571247899519e-01  4.1001714922058097e-01  4.2038756466415639e-01  3.7222872408900554e-01  3.8930989771397645e-01  3.9915462928551398e-01  1.6915401748886288e-01  1.6410190715065201e-01  1.4523928170426417e-01  5.0853975228246939e-01  4.9108630035065359e-01  5.1217449871737175e-01  5.2410062330751317e-01  5.2441395565533799e-01  4.7390847768605787e-01  4.7008139524965004e-01  4.5583948194789292e-01  4.4725841083872730e-01  3.5582553925528761e-02  2.5488550402082484e-02  4.4337609454198124e-02  3.3905267020054652e-01  3.2429826715603144e-01  3.0630288018896507e-01  2.6142482779426479e-01  2.3763170755443269e-01  3.8986567009739195e-02  4.5857621648407419e-02  6.2324678070491787e-02  2.2263004041095194e-01  2.5346585306072650e-01  2.3679125526285158e-01  1.6497997264778513e-01  1.9021745169942189e-01  1.5920934193107952e-01  7.5927409189273487e-02  4.9179735156675161e-02  5.3624402237735111e-02  5.5412120775796041e-02  7.7667430686064728e-02  5.5570030791331437e-02  3.6743707206775572e-01  3.6363299285287831e-01  3.8949025695012673e-01  4.8581703493767120e-01  3.2160409765797560e-01  3.1525856313533146e-01  2.9820863215513121e-01  3.7486265227789389e-01  4.0928195324290040e-01  3.7386777232978963e-01  1.1432182917569159e-01  1.0391028266611652e-01  1.7481101495984894e-01  1.9758058235047393e-01  9.5567810249150925e-02  7.8771259987613487e-02  9.9378233635483579e-02  4.0255545084168143e-01  4.1539421750284206e-01  4.2350409185289645e-01  2.4284609672683222e-01  2.5035996625484852e-01  2.2847313511436043e-01  5.8048507763812318e-01  5.9244809847160051e-01  5.8710506286553688e-01  1.1205282118425573e-01  1.2544654044915995e-01  1.3223547531609819e-01  0.0000000000000000e+00  0.0000000000000000e+00  4.9753177164246326e-01  5.1337284364193658e-01  5.0840662172223416e-01  5.8094125238776373e-01  5.2229672625609835e-01  5.0886437729653788e-01  5.3051760072928100e-01  4.4629722228513374e-01  4.4572385970402773e-01  4.6330448478049319e-01  2.6719504407951367e-01  2.8583918052886004e-01  2.5175016045014353e-01  2.9049435956856634e-01  2.1191284415101108e-01  1.8713062777394887e-01  2.0141695658950082e-01  2.6028234261062366e-01  2.2628043776593584e-01  2.4753392080289921e-01  3.3835294516453723e-01  3.1854033108096058e-01  3.4029380905722800e-01  0.0000000000000000e+00  1.5747030569691609e-02  1.7406936812565582e-02  3.7724362134005124e-02  2.4147962778459039e-02  4.6449665289320832e-02  2.5603546969510571e-01  2.3359821319734334e-01  2.1701307028213165e-01  1.2807467294466940e-01  1.1029062983485292e-01  1.5740520052112547e-01  1.5167718091490548e-01  5.2615867070680444e-01  5.1555814557078872e-01  4.8148478694363539e-01  4.6400606828558916e-01  4.7160476458153727e-01  4.7944644881559167e-01  3.0811572361693101e-01  2.8395243401586723e-01  2.9623680192284624e-01  7.2557122994216322e-02  7.3124390751343415e-02  4.9237704288159538e-02  7.5964787993014621e-02  5.9746163665338659e-01  5.9844863621659472e-01  6.0134818956395664e-01  6.0137033654320460e-01  2.2716283428290682e-01  2.4689980839189885e-01  2.3824912796359812e-01  4.1995924140276431e-01  4.0134756173510427e-01  4.3256318224846163e-01  5.0706236468634169e-01  5.2591988014620794e-01  4.5246775153546936e-01  4.5176939059500981e-01  4.7437187607750780e-01  1.8244586179738748e-01  1.1137152362108728e-01  1.3759899125662670e-01  1.5704765300426038e-01  1.5714756634547225e-01  1.0130730503569919e-01  3.0999152676415248e-01  3.1529656217497609e-01  2.8958289599694975e-01  1.8898778208217012e-01  2.1276554861634778e-01  1.9563787117568651e-01  1.8378875181750634e-01  1.8600621681762808e-01  5.1874002307085165e-01  5.7690718835061428e-01  5.7844514059098839e-01  5.8354308357557527e-01  1.9840442410889708e-01  2.2204077710880099e-01  2.3248345066024742e-01  1.4778689316890389e-01  1.8232685640077773e-01  1.6464358975550270e-01  3.0104709835671938e-02  1.6322113269747980e-02  5.8091263191964160e-01  5.9102630840468939e-01  5.9193981871901058e-01  5.4871826441758276e-01  5.6660826500098571e-01  4.9696738328591411e-01  4.8418565299428368e-01  5.2594839783977687e-01  5.4347284500679049e-01  5.3160674941211594e-01  5.3618238625516212e-01  5.4379393539244958e-01  5.5575098032473780e-01  2.4265227177367424e-01  2.4281450213818670e-01  2.1547696235664240e-01  5.8740072845465563e-01  5.8450089216574930e-01  5.9197698232790219e-01  2.6618948920476893e-01  2.6797204580267114e-01  2.4354958999475448e-01  5.1118794671472723e-01  5.0347239665706855e-01  3.1311717889652946e-01  2.8732717510774908e-01  3.0914384392991912e-01  3.3430195046276678e-01  3.8690675789833112e-01  3.9677897974579479e-01  3.8177287870455467e-01  4.0300244358540377e-01  3.9525002944266230e-01  3.8008051107213892e-01  3.6508469513942665e-01  3.8653556474485307e-01  4.1358463113996596e-01  3.8669211177723850e-01  3.4276926729926949e-01  3.4159866907853398e-01  4.0814084650705273e-01  4.3841102535133125e-01  3.0806973213156752e-01  3.0420928425885158e-01  3.4814618737647962e-01  3.6819987822182809e-01  1.3280510376989854e-01  1.6162201016917571e-01  1.5216070518041958e-01  2.3993340361317941e-01  6.7399744305068621e-02  7.2158285182961995e-02  5.2269536235315966e-02  5.9898469125144294e-02  8.6930028424449371e-02  6.7209714860572714e-02  4.9927263729136062e-01  1.3794932041050334e-01  2.6392533997344536e-01  5.8468663992496228e-01  5.7539882132077158e-01  5.9380927596376565e-01  3.0865322107895143e-01  2.8575054405122130e-01  3.1282867885484172e-01  3.3634823556481891e-01  4.8766405922914619e-02  6.0347434637273788e-02  7.6121057636717601e-02  4.9950617774065725e-01  4.9010279226915793e-01  4.3142673618204364e-01  4.3736154563503560e-01  3.5206729607900683e-01  2.0757500727709258e-01  1.9467696815760538e-01  2.2913177930203754e-01  2.8560710455696806e-02  1.3919082256807904e-02  4.2186056831287469e-02  1.2584128783182005e-01  0.0000000000000000e+00  1.9295437857408171e-02  0.0000000000000000e+00  1.0442856567094262e-01  8.6159707905413357e-02  8.3644820804440259e-02  4.4821690434483236e-01  4.3494483971043640e-01  4.6911182124529849e-01  4.4670519540903303e-01  4.7258297260623955e-01  3.1810549751279105e-01  3.4681821633832488e-01  3.3514654083600182e-01  3.6249105635243828e-01  4.5164082699324931e-01  4.7257299750083759e-01  4.5468996761314218e-01  4.3902111970841029e-01  4.2330694209886160e-01  4.4198192972978079e-01  1.5207709916846560e-01  1.7253744204350382e-01  1.5180935177789029e-01  5.3915702163741801e-02  4.5610525653472019e-02  3.2774491650711300e-02  0.0000000000000000e+00  0.0000000000000000e+00  3.7099499695806989e-02  2.0823669595125063e-02  9.1967145252588117e-02  9.4166390749785514e-02  5.2807202853814079e-02  4.9328817914775815e-02  2.4206123049737533e-02  0.0000000000000000e+00  0.0000000000000000e+00  2.4652099316206189e-01  2.4767813764698252e-01  2.2586031189095873e-01  5.8030663884576117e-01  5.8773299370198440e-01  5.6723156264460983e-01  5.7543814989851594e-01  5.6659130268385305e-01  3.5829681978465999e-01  3.7664992637352662e-01  3.8107972919286465e-01  4.3245731661040188e-01  4.4651550749393393e-01  2.0922428432552248e-01  2.2930390271386311e-01  1.4951141254988182e-01  1.4579381048277573e-01  1.2290306883719354e-01  3.0198446997984002e-01  2.8224266151694061e-01  3.3297551008520487e-01  4.5495235786361432e-01  4.6943584921901133e-01  4.4182187100561920e-01  2.6407387728008913e-01  2.2490339589502201e-01  1.9052404916338017e-01  2.1892522205917103e-01  2.4737517055395242e-01  2.6928266117750704e-01  2.4894980661786928e-01  1.3237584030788097e-01  1.0919064266914602e-01  9.5185032828124252e-02  6.0006286941274167e-01  6.0140589075610285e-01  5.9813293088843478e-01  5.9740099477263708e-01  5.9953924200592901e-01  9.8193958012059213e-02  7.4629353875715759e-02  5.9859856484296736e-01  5.9560991331138369e-01  5.7894669361589546e-01  5.7215413447816132e-01  5.7031996487052838e-01  1.0376604863922177e-01  1.3232587312549882e-01  1.7365591754872298e-01  1.4857121505164728e-01  1.7491221388098421e-01  3.0409963135776298e-02  2.8175869358341394e-02  1.3778709924733835e-02  4.2500510340606373e-01  3.9889452871357978e-01  3.8304157897636515e-01  3.7801125091636961e-01  9.5178937060262869e-02  7.9346971513892042e-02  2.5756923053062361e-02  5.3823553451318361e-02  3.2126312745502383e-01  2.8680224001936488e-01  2.5995894893240118e-01  6.4726522199106212e-02  9.0202821731526175e-02  8.8430911886142882e-02  7.1277839093854503e-02  6.0253946471715572e-02  1.0657587095164583e-01  1.2887241426484006e-01  1.4293557453964653e-01  3.9000397019668669e-02  2.3830139503866383e-02  2.0360190801774997e-02  5.1597157514184040e-02  5.9153242872433898e-01  7.1816926507736426e-02  5.2453735570276112e-02  5.0872852484873859e-02  9.6454816678180316e-02  8.8610627573040918e-02  5.1091882007655687e-01  3.8655656293846197e-01  3.6517226733635766e-01  3.6664735796933295e-01  3.3691264858419606e-01  3.7587465847538021e-01  4.0645552976728011e-01  4.2984211369406433e-01  3.3967792672110732e-02  3.0717456291657581e-02  5.1688183465848514e-01  5.3372941338807456e-01  5.1945420752735605e-01  3.3547901715348977e-01  3.9101034382218480e-01  3.6862646379975333e-01  1.7490329888959841e-01  5.7396758828830907e-01  4.6296848390725531e-01  4.8931927373817780e-01  5.4228973452008244e-01  5.6166741188845715e-01  5.5254614488283371e-01  5.4376975561388241e-01  2.1982715776100850e-01  1.8592208325300547e-01  2.0135933638732734e-01  2.1653068778253634e-01  3.1353461459281656e-01  2.9060000336400327e-01  3.5121629616263017e-01  3.6637393600952156e-01  2.1933488343489552e-01  2.9347615676715444e-01  3.7432547585216269e-01  3.9435132776032900e-01  3.4755105938073744e-01  3.4000217959757906e-01  5.5698936973335089e-01  5.6611975716904750e-01  5.6306783496207324e-01  5.6534212021939656e-01  1.2977258071227010e-01  1.7716946080996113e-01  1.8366376799779810e-01  1.5362490297690978e-01  2.0704956951589765e-02  1.4632328804164924e-01  1.2000635693654403e-01  1.0132505140178777e-01  1.1317100646379964e-01  5.7616214274008282e-01  3.6641748427051639e-02  4.8687299673039197e-02  1.7509902487905838e-02  3.9365232881614631e-01  3.6740633617639956e-01  3.9286629088865888e-01  4.0614361150734574e-01  4.1364461694731991e-01  6.0087908204231799e-01  5.9503159297796504e-01  5.5346161706045016e-01  5.4600423517317032e-01  5.5769220777054662e-01  5.6714349210873483e-01  5.5233656081566085e-01  5.5520595334247747e-01  3.5294364973148079e-01  3.5538435020359604e-01  3.1064256295479159e-01  2.0316952159475990e-01  1.9320798171370315e-01  2.1122544657538905e-01  3.3223437886682416e-01  3.2409646437705003e-01  3.4702074664283755e-01  3.4373969586520770e-01  3.2123058829126816e-01  5.6521581460075287e-01  5.1629632265087944e-01  5.3584439168084763e-01  5.2332668257554371e-01  5.1563428293542435e-01  9.4170702941568096e-02  7.2855074319017471e-02  9.8029045034383588e-02  4.2950453137842109e-01  4.1115029742120557e-01  4.1050056810984220e-01  5.0073832703194687e-01  4.5461810605556763e-01  5.9525908312526210e-01  5.6520584110609451e-01  5.6785073889252302e-01  4.3305316851033648e-01  4.1303531151079675e-01  3.9086382286059246e-01  1.9172995813075575e-01  1.4859552266190396e-01  1.0154325344589364e-01  1.2418174916961149e-01  1.1762297727580140e-01  1.0479993197840229e-01  0.0000000000000000e+00  1.6512163174997201e-02  3.7528143451008453e-02  4.1247479835360867e-01  3.9017532484660211e-01  4.0149266962522118e-01  1.1690733561793488e-01  1.6972164540344023e-01  2.0430800648786973e-01  4.7105797534005894e-01  4.4581990878768862e-01  4.5969502739193357e-01  4.4853064292411576e-01  4.2774882407437081e-01  4.3000196191500906e-01  4.0601137985708269e-01  3.3903385391862030e-02  4.6793658730080297e-02  9.0982053942119070e-02  1.6611035824463616e-01  1.7592339654131614e-01  1.9463565546420453e-01  1.9372650763835733e-01  5.5177283956900591e-01  5.5880134944107918e-01  5.4699700721839806e-01  4.9133125188951504e-01  5.3153039668435473e-02  5.8185713748648941e-02  5.9351467938579747e-02  8.0640106855361354e-02  3.1854403241194024e-01  7.6029202678078625e-02  5.9817055162448791e-02  5.4710819883942260e-02  7.5920552610819036e-02  0.0000000000000000e+00  1.4992400869528898e-02  1.8305621525232098e-02  3.5691165131080699e-01  4.0807440827749125e-01  4.2952639449606439e-01  1.9573865627376588e-01  2.3717077272494197e-01  2.0585199477576585e-01  2.6636271767258557e-01  2.4344165345785629e-01  4.7763327269275951e-01  4.9018763550027311e-01  1.8550256868584619e-01  2.4300583444476542e-01  1.4778873864751532e-01  1.7134277027263503e-01  2.3940771987510207e-01  2.4601473240380967e-01  1.2238456199775952e-01  3.3433561102029712e-02  2.8967354410890427e-02  5.8091851730812194e-01  5.9514824901458663e-01  2.7795869818265684e-01  2.9903207022351641e-01  2.7845203072633373e-01  2.5509349744135268e-01  2.3877244183784718e-01  2.8701576551380687e-02  3.2218244142748639e-02  2.3448674740902217e-02  6.2799859020128940e-02  5.8273641472102129e-02  1.2092315238611517e-01  1.4230681075599869e-01  5.7501886333525820e-01  5.8653884250845811e-01  5.7125675991395275e-01  5.8841867267434589e-01  5.7936100607591434e-01  5.8730798651148886e-01  5.8436217907985266e-01  2.5437531766301841e-01  2.8208749116445908e-01  1.1778201608832566e-01  9.8697114745561434e-02  1.1115009752073034e-01  3.6232916982055260e-02  1.6313855464021951e-02  1.9713887023064525e-02  3.4700671871595035e-01  3.6646080508080214e-01  4.1184552236985522e-01  4.8836966182207747e-01  4.8901432034135234e-01  4.7068412035888207e-01  1.8377026614072209e-01  1.9272176118564910e-01  2.0546382912462124e-01  6.2537205546049093e-02  0.0000000000000000e+00  0.0000000000000000e+00  2.5745159459476037e-02  2.0555157443567895e-02  4.2612882196724938e-01  5.8128322155981560e-01  1.3965471482728284e-01  1.6551715849932966e-01  1.3789031948638616e-01  5.3877376853213732e-01  1.2506819644604386e-01  5.9907024934832763e-02  4.8125408572103412e-01  4.9942347872583193e-01  4.9552987564475226e-01  5.1650162711277969e-01  5.1636349018474326e-01  5.0132834523192571e-01  4.3873222813247037e-01  3.4688790258996810e-01  5.4206388530830603e-02  8.2577469140554291e-02  1.6665394717373272e-01  3.0798718801198277e-01  3.1198264882594451e-01  3.7865687514841806e-01  5.5469380934622803e-01  5.4466701300392595e-01  4.4980904384518561e-01  4.7966792439346406e-01  2.8998005597110704e-01  2.6498886591280629e-01  2.8207667016968480e-01  1.3791167020519654e-01  9.3777186878297086e-02  3.4607945842203128e-02  3.4550720920774103e-02  1.4656666096693033e-02  3.8000119276791700e-02  1.7296098507766412e-02  5.3194896015151616e-01  5.2331985443870577e-01  5.8721045935888139e-01  5.8629130830126786e-01  5.7446954944180750e-01  0.0000000000000000e+00  0.0000000000000000e+00  5.0817592176175853e-02  2.8302462325783428e-02  2.5721325583282617e-01  2.122336697