<?xml version="1.0"?>
<VTKFile type="UnstructuredGrid"  version="0.1"  >
<UnstructuredGrid>
<Piece  NumberOfPoints="4416" NumberOfCells="8583">
<Points>
<DataArray  type="Float64"  NumberOfComponents="3"  format="ascii">0.8086541599380677 -0.2048763455233037 0  0.7918113862977368 -0.196559194867078 0  0.8149785941601437 -0.1896689371149581 0  0.7914858187768374 -0.1777776074813666 0  0.7877255216983492 -0.1533892286670211 0  0.8069338303502935 -0.1686538422919474 0  0.899022479595791 0.184304626635858 0  0.8862858957216577 0.1766594759701586 0  0.9016882443091289 0.1699501980853346 0  0.7616059773365476 0.3829773753860564 0  0.7658507749308791 0.3677601052762543 0  0.7492922355656014 0.3783917785660174 0  0.8219216351054168 0.3391921289599656 0  0.8057831535880789 0.3421843263224907 0  0.8119355413089588 0.3303496391145325 0  0.7220264744090197 0.5106119967472164 0  0.7118244053482322 0.5006472799438278 0  0.7327148582315924 0.5025004234449463 0  0.7183233223908293 0.4197070045010598 0  0.7057584358496306 0.4349324541631816 0  0.726969503648605 0.4399632025911126 0  0.4948809589783702 -0.7587214418314938 0  0.496000103103479 -0.7738609514314374 0  0.5074423606748083 -0.7658265328827868 0  0.305525380277092 -0.7064747437281449 0  0.3242100747187151 -0.7108177388656757 0  0.3171785798323093 -0.6913478703475279 0  0.4488738863096119 -0.6684512714941455 0  0.4436916993000088 -0.6519953491285186 0  0.4591226074127259 -0.6551106812039649 0  0.5078173218097225 -0.3783715883926873 0  0.5307892766164537 -0.3869257534582856 0  0.5133592726395738 -0.3911729153247172 0  0.6561158690357738 -0.1968942793676337 0  0.6457765788067777 -0.2093472640635398 0  0.6396359273363263 -0.1967959253540099 0  0.6889502491783563 0.07736416214077002 0  0.6671582276918092 0.07660977837604978 0  0.6753490275496411 0.08895734935043197 0  0.687616450849042 0.02325007349824202 0  0.6712990797282571 0.008824149462458405 0  0.6725728959978043 0.02440223847291031 0  0.7169692747045605 -0.1057923845585227 0  0.7112001141028529 -0.0878833184588948 0  0.7254935728113139 -0.09316263743262652 0  0.4901028402188922 -0.1326423951134703 0  0.4815761299901051 -0.1176906656982198 0  0.4734209463363759 -0.1323442188692417 0  0.4803499583063567 -0.3770557387445882 0  0.4748287702150885 -0.3923209366018173 0  0.4679539368639857 -0.3693813222876973 0  0.8858605506329501 0.04738074419282674 0  0.905286961275223 0.04850008148780963 0  0.8951741028657045 0.03871552820532433 0  0.7231334942947516 -0.3370016299284245 0  0.7364734465641689 -0.3532149783708192 0  0.7187381914250279 -0.3516521066648289 0  0.6372409325910694 -0.3190952936354615 0  0.6249735691563155 -0.3068124543837845 0  0.6229608057093182 -0.3278552369158761 0  0.9094424879649575 0.1575797645502882 0  0.8893616474035989 0.1621264567010903 0  0.8968511734235574 0.144656849416264 0  0.6843826752355642 0.2557281123460899 0  0.6863711605470992 0.2323238674704284 0  0.6988559565081479 0.2451712039685951 0  0.6077570018890249 -0.5902214901230238 0  0.5866761278715384 -0.5971138466426643 0  0.5917830673075289 -0.5770488417915153 0  0.5835151034696938 -0.6553145226126417 0  0.6012417315719338 -0.6385630945056741 0  0.6013599839300979 -0.6564432452254697 0  0.8926779853137201 0.001262462309081169 0  0.8723123703894097 -0.007708744508678273 0  0.8761740029538458 0.01112661322548586 0  0.5891582587838761 -0.03907081304593805 0  0.5865973446499904 -0.05440619937688938 0  0.57379572452394 -0.03593842880853319 0  0.4182940788323986 -0.6209785966345436 0  0.4240417305924132 -0.6062172653809482 0  0.4095860178904412 -0.6073829991665254 0  0.3520883826751479 -0.596848016048694 0  0.3641516027186824 -0.5866354982165836 0  0.3609044197925572 -0.6097160011064797 0  0.1446577576694488 -0.4601058378212226 0  0.1509948197442019 -0.4745489693549051 0  0.1389361877994288 -0.4806466395259887 0  0.4351752040421797 0.1418387703811541 0  0.4239012105807405 0.1553984738062708 0  0.4187338624903298 0.1360383157437807 0  0.2634173602544012 0.04757607362056596 0  0.2619685351442633 0.03368958928835625 0  0.2768227066253919 0.04754308770016498 0  0.1295992343753243 -0.06800391727833612 0  0.1302708542622769 -0.04986712015831914 0  0.1458942031950296 -0.06702505250834456 0  0.5702538915569604 -0.5440667582386185 0  0.5562107941347688 -0.5480775290225948 0  0.5728828268081656 -0.5576925889962792 0  0.5888516064775238 -0.3283453996056626 0  0.575606044142866 -0.3120947093795647 0  0.5735190838695526 -0.3281491864609066 0  0.4119642880149134 0.0905133690417696 0  0.4165591401855071 0.1042341312423811 0  0.4258517272561795 0.08781211093361772 0  0.700435175365253 0.1904195782392997 0  0.6853546659733943 0.1943047116283401 0  0.6964167548226444 0.2054175785628229 0  0.7788014208742087 -0.4654596820185557 0  0.7889566762626343 -0.4874253993935623 0  0.7962834792938428 -0.4659797064031662 0  0.2488703343281347 -0.3431616876654588 0  0.2457653357558031 -0.3565599181584344 0  0.2351339992895339 -0.3396087218544856 0  -0.02388501001495511 -0.3761886025244691 0  -0.02520830685259722 -0.3596219854914644 0  -0.009841466502368206 -0.3761271449225015 0  0.4769500502411276 0.4601382362290277 0  0.4573774645635899 0.450383239819921 0  0.4718628551966688 0.4439591268524888 0  0.4917794376711814 -0.1972555978082625 0  0.505928721504354 -0.2025986265763232 0  0.4998720686971186 -0.185943852427172 0  -0.08606257651973936 -0.05462704524659229 0  -0.1012937921881515 -0.05155163091806127 0  -0.08033031954538288 -0.04259436282840512 0  -0.008757415203316868 -0.3572614604688491 0  0.1390106270926973 -0.2166637149856598 0  0.162488089572871 -0.2150473491996736 0  0.1501399086167546 -0.2070033694413123 0  0.3546302237366451 0.08822542791995883 0  0.339187523772329 0.09302479289057097 0  0.339490117720677 0.1058779006803005 0  0.4641641243214657 0.1404965408204731 0  0.4501230861403721 0.1509604759903427 0  0.4640449933112752 0.1549891404683678 0  0.9375791472553948 -0.1864960877863716 0  0.9321078918132163 -0.1627389896590795 0  0.9230636988095106 -0.1820014414884678 0  0.9035273404442838 0.02912117334123241 0  0.9127372095510694 0.03805425122008746 0  0.1821993808568187 -0.432828855237157 0  0.1707650651434532 -0.451516588230124 0  0.1696792455571891 -0.4380102376108829 0  0.2818414833765505 -0.7146899593557918 0  0.2889776146008706 -0.6970158068444517 0  0.2931232449816122 -0.7089673717181497 0  0.9137222488843366 -0.2576963259120224 0  0.9057015027734866 -0.2811889513273181 0  0.8937346912723251 -0.2678831177882813 0  0.9103338677751003 -0.1737037616462621 0  0.9166055249651663 -0.1957561526640836 0  0.8957223199904315 -0.1835097671773969 0  0.6153439160541319 0.1468091775802926 0  0.6210361403193074 0.1618572122575944 0  0.6055961342663212 0.1616820449445886 0  0.4284127007223792 0.2073334739376188 0  0.4344423446702795 0.1929709718624723 0  0.441384127835113 0.2088124342236446 0  0.3733320192714619 -0.1535288184028485 0  0.3588657850270981 -0.1693709536260647 0  0.3523760376646541 -0.1489188623019877 0  0.5957916768250641 -0.2405639016829338 0  0.5892094059677346 -0.2571167411237241 0  0.5822754038194597 -0.2447742742864205 0  0.640944308409664 -0.6468990898626902 0  0.6286780359646438 -0.6530178084813402 0  0.6304944656323788 -0.638027734658456 0  0.6943792542447561 -0.4535185031614564 0  0.6939886039530548 -0.4317701590254521 0  0.7085544889647809 -0.442386202779482 0  0.3395295034151978 0.1997868953610595 0  0.332860933289504 0.2141603126880007 0  0.3237444551330791 0.1972480913994478 0  -0.02445926670603867 -0.3985962696400789 0  -0.01067629568164947 -0.3901459876589111 0  0.9328638936949143 0.2834904861158259 0  0.923892162783964 0.2618114543841253 0  0.9424026863443954 0.2668469537148758 0  0.2532792555527151 -0.08270818181828798 0  0.2527473256199652 -0.06881257645970822 0  0.2398420033294085 -0.08314168283965098 0  0.01580864582429657 -0.03602771429562236 0  -0.001090478477742312 -0.04437564348035689 0  0.02207713322976974 -0.05353969486288011 0  0.3549555819878234 -0.3898461680085714 0  0.3433037771540922 -0.3991515624343491 0  0.3453417749947163 -0.3787967693442117 0  0.542551025954475 -0.4123381823102418 0  0.5632508692399043 -0.4164497894042732 0  0.5548627644635375 -0.4045172391839038 0  0.6809334339991457 -0.5117286016482265 0  0.6927611435305472 -0.5028422649107153 0  0.6902811165642302 -0.5232596187934515 0  0.5431713356932504 -0.67212611660666 0  0.5637951900173268 -0.667321633792234 0  0.5513272614973983 -0.6604689648074004 0  0.8132211828214213 0.18985155067617 0  0.7945745271426574 0.1771442148832167 0  0.7886564668281072 0.1910604939362664 0  0.8343988857393589 0.03630759300691505 0  0.8343077824237692 0.05306941785312328 0  0.8244235962369153 0.04463453564755907 0  0.7524299251586728 -0.3276603176381307 0  0.7597291191612502 -0.3080497367078019 0  0.7674874378582565 -0.3193707269833982 0  0.7918776421923003 -0.3432746103646906 0  0.773676601060287 -0.3316202407975498 0  0.7956292529451428 -0.3313181289173188 0  0.5160009804398674 0.1620189138114942 0  0.5025007681083302 0.1680326495180372 0  0.5192955234396179 0.1756717009175724 0  0.5637580283015247 0.1661949965052646 0  0.5772230400874727 0.1737447811213305 0  0.5684034086521395 0.1509466375931399 0  0.34248233031568 0.3329493616732829 0  0.3464069811949507 0.3104407618361972 0  0.3294219393598248 0.3154183666160784 0  0.2789075721072011 0.008698336678611106 0  0.2883735492429315 -0.01037885296491499 0  0.2744984523843805 -0.005376512679016969 0  0.2192430024257987 -0.2196077145036049 0  0.2265157422712907 -0.241728852399874 0  0.2394381050046847 -0.2278431160781132 0  0.5388981429225672 0.08071540287252696 0  0.5518059262219328 0.09246735402205405 0  0.5533616541348916 0.07779399388454947 0  0.3879717717235426 -0.04591948522392839 0  0.3859331780043471 -0.06944056903557713 0  0.3694884519661793 -0.05616640438700998 0  0.7248148686638546 0.0123384709736764 0  0.7245389824530868 -0.007554306157571342 0  0.7100062818456092 -0.0007375141543544406 0  0.7665595508414519 0.0514142974162754
[...]
<PointData  Scalars="f_3411-2"> 
<DataArray  type="Float64"  Name="f_3411-2"  format="ascii">1.8096685463548781e-01  2.0256240780071319e-01  1.7782883845689507e-01  2.0818936531855886e-01  2.1858962081948238e-01  1.9237207537247158e-01  8.6029951523763012e-02  1.0144601353437725e-01  8.6198200933059993e-02  1.5956951632888916e-01  1.6286966175042644e-01  1.7481728520686546e-01  1.1775904635804225e-01  1.3325239811771644e-01  1.3188446006942720e-01  1.2311822150776772e-01  1.3912620496214440e-01  1.1844991193798408e-01  1.8355678402291042e-01  1.8696413960588373e-01  1.6276157205565900e-01  9.9137343496317018e-02  8.4445127463184111e-02  8.4961757807667695e-02  2.5829716547711545e-01  2.4427657320584514e-01  2.6946967404846423e-01  2.1533694426061228e-01  2.3522797908167511e-01  2.2159857550654871e-01  4.2902680692923639e-01  3.9929930363433602e-01  4.1357580481447948e-01  3.6370153708387865e-01  3.7143118514410722e-01  3.8365229770014309e-01  3.5330212653402315e-01  3.8074119491725583e-01  3.6849671606455314e-01  3.5997285542468971e-01  3.8093755452800515e-01  3.7879027611947663e-01  3.1385625163311515e-01  3.2409875058354648e-01  3.0560374062898288e-01  5.8455855063276052e-01  5.9877555886846467e-01  6.0369636372420354e-01  4.5751651775838381e-01  4.5084688017290997e-01  4.7565208213429566e-01  1.1995084189221010e-01  9.8306588588570984e-02  1.1002816936101216e-01  2.2426345924213953e-01  2.0150017940510051e-01  2.2131762074696976e-01  3.2901695315652818e-01  3.4960558443190726e-01  3.3988279300758345e-01  8.0276061566074988e-02  1.0110761992778212e-01  9.6224341747340320e-02  3.0659675601296077e-01  3.1410394068677666e-01  2.9422017278030227e-01  1.6569094821514208e-01  1.7751724704146463e-01  1.8989493098341267e-01  1.3091101713606496e-01  1.3133862926157353e-01  1.1649032521370387e-01  1.1378909086534066e-01  1.3673481171685037e-01  1.3226183209846190e-01  4.8285379401127188e-01  4.8452463543767649e-01  5.0226043923186303e-01  2.8415024821675539e-01  2.9515516279921467e-01  3.0410018882166973e-01  3.5372435275952979e-01  3.5684257514553197e-01  3.3417084918867795e-01  6.1466390864580600e-01  5.9614736181488015e-01  5.9326318270966838e-01  6.4319239093823988e-01  6.5022478303869846e-01  6.6292301808578036e-01  8.3013975281851649e-01  8.3286137875746202e-01  8.1934968704840172e-01  9.0610951019810193e-01  9.0911574965365338e-01  8.9938970282997110e-01  2.3583290910365085e-01  2.4471665693080602e-01  2.2213987403071953e-01  3.7734313759051735e-01  4.0186711836079358e-01  3.9425707963387757e-01  6.8337117886162613e-01  6.7494336024201007e-01  6.6894006448174503e-01  3.1252522016643602e-01  3.2933566209707665e-01  3.1221744018485470e-01  9.7519277135228261e-02  7.5501245443831286e-02  8.0685092582974086e-02  6.8106152041993140e-01  6.7088557200464649e-01  6.9276774731921942e-01  7.3078517730429626e-01  7.4729784102385499e-01  7.3151089207689957e-01  3.9180571474427350e-01  4.1814490745278043e-01  4.1052413280814892e-01  5.5776105871579740e-01  5.3925567291245047e-01  5.5348144922555820e-01  9.2344008114380938e-01  9.1939267729245266e-01  9.2668384568767259e-01  7.5035804023699726e-01  8.3807199149600875e-01  8.2868054390241574e-01  8.3922154505026658e-01  7.4247454713622096e-01  7.5586317823546845e-01  7.5207641336208475e-01  6.1154723174257131e-01  6.2343826984727757e-01  6.0639156876042533e-01  4.4955330257093425e-02  5.5296799377237187e-02  6.1041490506393958e-02  1.0111013044063373e-01  9.0596548845406161e-02  6.2948397860448380e-01  6.1417722997606716e-01  6.2923526321492795e-01  2.6010893228014731e-01  2.7698948826810976e-01  2.6139029491318322e-01  5.1981864978646229e-02  5.3043651319780040e-02  6.9409885059200496e-02  7.6184914226260378e-02  6.4795857750337291e-02  8.9788249752359786e-02  4.2984630802425722e-01  4.1823448755681047e-01  4.3718658259508969e-01  6.2211853581622600e-01  6.2269577055433278e-01  6.0764426443146458e-01  7.0295352736396144e-01  7.1016764517240738e-01  7.2508858784476737e-01  4.1734963961195043e-01  4.1688322020603819e-01  4.3102504690273336e-01  9.3840846452124760e-02  9.8430800846056252e-02  1.0885194757641911e-01  1.8662290018535949e-01  2.0084908385288838e-01  1.7956795135446024e-01  7.1316700960987189e-01  7.1122410226839738e-01  7.2857480573120648e-01  7.0752482263391403e-01  7.1694593625296210e-01  2.5123347327664781e-02  4.0400147522330863e-02  2.0277598819439996e-02  8.3110311631885780e-01  8.3450128586991645e-01  8.4075393671339294e-01  9.3741059867395893e-01  9.3676044595719787e-01  9.3464992669896441e-01  5.6102458158965751e-01  5.6189637000589776e-01  5.7858135488336571e-01  3.6815028864240351e-01  3.4423628484486629e-01  3.6167413909529617e-01  1.6041131898950814e-01  1.5551225831211157e-01  1.4375916155209534e-01  1.4608087486741847e-01  1.3535021309267742e-01  1.5045247710168522e-01  1.7981248397732913e-01  2.0469018933310329e-01  2.0781979534424344e-01  1.7972906891143611e-01  1.7878105694851601e-01  1.9097537573652279e-01  1.9688147880566639e-01  1.9798058666980800e-01  1.8426050290811630e-01  1.4732795739975887e-01  1.7203143061704357e-01  1.4869899737374911e-01  5.4433656167373001e-01  5.5780997061544968e-01  5.3524962562684131e-01  4.8623658798619995e-01  4.6742152557908201e-01  4.8580181348901530e-01  6.2010061579811115e-01  6.3460755172009242e-01  6.4497752001933972e-01  8.2095631468224106e-01  8.1317966311280609e-01  8.2457338338707509e-01  7.9446168546147000e-01  7.7545175535194510e-01  7.7604442954045527e-01  5.3939379199683479e-01  5.2140784037965537e-01  5.2218116693242145e-01  7.1658621062875349e-01  7.1518789368622548e-01  7.3411485505035989e-01  3.1372113048070421e-01  3.1409819660229082e-01  3.3231621657337235e-01  2.6012386182662384e-01  2.7868048123114303e-01  2.5734689184999948e-01  6.5285055681929427e-01  6.5680006768119914e-01  6.6708225982257363e-01  7.1300617491696072e-01  6.9837701365798222e-01  7.2261398427609802e-01  5.8782765686036587e-01  5.9825426219940037e-01  6.0709749334997332e-01  8.6071647771511772e-01  8.4714400230619047e-01  8.5781058478020789e-01  8.4524928043482395e-01  8.0647462862637620e-01  8.0731916944769588e-01  8.2235113497956946e-01  7.6282779083811081e-01  7.8099596962815487e-01  7.6830944424057890e-01  5.8770424862809367e-01  5.9472525121863062e-01  5.7797564367826115e-01  5.7408186316883059e-01  5.5945777447774825e-01  5.4964718672385671e-01  1.5823825808401892e-01  1.8051827322903982e-01  1.6036649257423374e-01  1.5885761208647667e-01  1.7942140443757895e-01  1.7155302111468582e-01  2.0322171459061356e-01  2.0898759942642783e-01  2.2327260768261231e-01  2.7089654276865444e-01  2.8965406432829582e-01  2.7453926435366482e-01  2.3790121183552218e-01  2.3800795578798103e-01  2.5986657993654838e-01  9.2869763784594794e-01  9.2515004666121925e-01  9.2265812217016552e-01  7.1722502298096291e-01  7.3279795636293910e-01  7.1224429971223480e-01  4.5656436223508556e-01  4.7233936672755067e-01  2.6409345821051700e-01  2.9169307599563693e-01  2.8129323910295634e-01  6.1246830511958561e-02  8.3877381150014682e-02  7.8208114142054933e-02  4.6928411822804453e-02  4.9637950916516231e-02  3.7265504332594943e-02  2.9845472273507206e-01  2.8539626095501153e-01  3.1166176415824587e-01  2.6123038021665729e-01  2.8013222303625729e-01  2.6707302796095078e-01  7.7992766170825034e-01  7.8132524486264099e-01  7.9263766683898751e-01  7.3173172171076406e-01  8.6816490267291635e-01  8.7384132043535256e-01  8.7569848670049777e-01  7.8585371830836526e-01  7.7639177507883483e-01  7.9510351025709780e-01  1.3535699594742481e-01  1.2560832517841733e-01  1.2102933978071985e-01  1.3259353910778365e-01  1.4899215375598515e-01  1.2616579315906826e-01  2.1603560197435384e-01  2.0073865513832467e-01  2.0121609184521355e-01  1.3641472746364203e-01  1.3829010627853300e-01  8.1360117276762367e-01  8.2643608547153913e-01  8.2673329024479780e-01  8.1483483878122764e-01  8.2848972128723353e-01  7.1069577775599913e-01  7.1790948911269992e-01  7.2576440351725624e-01  7.3311696883499211e-01  7.2508784906857937e-01  8.1366798408059215e-01  7.9769291111120089e-01  8.1271811623283019e-01  8.3848359472465306e-01  8.4362481336926531e-01  8.3317760136719676e-01  3.3272956188041369e-01  3.1974888414622993e-01  3.0303943125878591e-01  3.1233254939964591e-02  1.5396794860283955e-02  1.5107387375750125e-02  9.1659061100098160e-01  9.2078202107955676e-01  9.2239590145876660e-01  8.4019765986742567e-01  8.2555748346955993e-01  8.3585267942044983e-01  8.8095667138887024e-01  8.7087830321713533e-01  8.7818742460488275e-01  9.0841941561527140e-01  9.0553471973738686e-01  9.1387087898230057e-01  9.0605491129317250e-01  9.0457239297208125e-01  9.1077114789367386e-01  9.3713464291468118e-01  9.3467240163206833e-01  9.3726201237635753e-01  8.0165168664134023e-01  7.8421136603535135e-01  7.9780067177613034e-01  8.0907007108253493e-01  8.0983249694776260e-01  8.1949543053474183e-01  1.7509390495950899e-01  1.4992289999071828e-01  1.5804730331178815e-01  2.4634565836404743e-01  2.6135605457666344e-01  2.3612300780527906e-01  4.8570855417607739e-01  5.0004307062012743e-01  4.7276748765692445e-01  4.4258747786570307e-01  4.4758050685193024e-01  4.3167800539693313e-01  4.2630062827102339e-01  4.3763472807239767e-01  4.2110004289258085e-01  7.5644694684555269e-01  7.3916371101531775e-01  7.5269387414231725e-01  7.3101458772302530e-01  7.2242425552677747e-01  7.1514001193567933e-01  6.2449066454921121e-01  6.4569804552152399e-01  6.3929595225274194e-01  5.6626193631156385e-01  5.8421747648161082e-01  5.8021224333939936e-01  8.5288946791260267e-01  8.6492452562000555e-01  8.4859125660381163e-01  2.9045260820546248e-01  2.9187390660790768e-01  1.5692580407730267e-01  1.7935359291318043e-01  1.6189284378065671e-01  5.9988657463038018e-02  8.3169521803019994e-02  8.4049620809147157e-02  9.5328858629288221e-02  7.2131808004763737e-02  8.1579730443625625e-02  1.0545088980838387e-01  1.0946452508439390e-01  5.7977048566251944e-02  8.3059305958022148e-02  7.8378280529050992e-02  7.3734926722348229e-02  9.2529607215341023e-02  7.5588946060082665e-02  3.0712907577102960e-01  3.2141339447888495e-01  3.0231985979259096e-01  2.4034785457510457e-01  2.1187968649329786e-01  5.8330884082418946e-02  6.0713290283156113e-02  7.6290403994886680e-02  9.3291708936263318e-02  9.6440100488006289e-02  8.2246611602079703e-02  6.2881830946198014e-01  6.4476843933959949e-01  6.2399507913464280e-01  5.2543704089603371e-01  5.4549611448330038e-01  5.2824623852055419e-01  9.1383186434138830e-01  9.1166384480843488e-01  9.1886185329045111e-01  4.5288191912374232e-01  4.5951051190255576e-01  4.7256227638412979e-01  4.6733081970117923e-01  4.8387611827301080e-01  1.2277456831918647e-01  1.0524170388714776e-01  1.3056462476862107e-01  1.7695309164515091e-01  2.6818376803434324e-01  2.6396521510368176e-01  2.8624603441709506e-01  4.2821185679998552e-01  4.1704974822496721e-01  4.3514229643542135e-01  1.0894346718966236e-01  1.2715926966699403e-01  1.1355120837530107e-01  9.6799426832296642e-02  7.3682417394796348e-02  8.2296929567385060e-02  5.8640942055925960e-01  6.1542759716514195e-01  6.9130106818407178e-01  6.6937378761898247e-01  6.7714515889881643e-01  1.0631132756444105e-01  1.2172546448240509e-01  7.5404052494321791e-02  9.5018117395660323e-02  8.9077580483449381e-02  2.5942442929703879e-01  2.8092928743745105e-01  2.8377324993094338e-01  2.8570473312595629e-01  2.6726262676853452e-01  3.9024669095838455e-01  3.6376343735423139e-01  3.7925649294979547e-01  4.3615822737484805e-01  4.6194749766379301e-01  4.4626569250367087e-01  2.2927920373774871e-01  2.1177179288268547e-01  2.2314494765194071e-01  3.7391083867749941e-01  3.5947944170184093e-01  3.7921580063186772e-01  5.0078000079884488e-01  5.0860889997015035e-01  4.8877704224871366e-01  5.7996911410211383e-01  1.2638182305350018e-01  1.1162501408752275e-01  1.2727765021717888e-01  2.9028179913998664e-01  2.7775644915745806e-01  2.9356390662617066e-01  3.4077665912495197e-01  3.5002163374283529e-01  3.6441958098200328e-01  2.5732224378877278e-01  2.8224988168355469e-01  7.5869036612225338e-01  7.4345237113858220e-01  7.4998733427448028e-01  8.4484321097508064e-01  5.7440118889683089e-01  5.9567916453249214e-01  5.8175254844675195e-01  4.7111954859515437e-01  4.5109161351518967e-01  4.4694653478108987e-01  6.4717082911123780e-01  6.2267293117672140e-01  6.2747561292352994e-01  6.2061535335843776e-01  6.0214458873761778e-01  5.9873214986796486e-01  4.4306427080313548e-01  4.2343458581921151e-01  4.3669534397146981e-01  3.9136744224038483e-01  3.8183211992045935e-01  4.0851911036252941e-01  3.3962874782062191e-01  3.2485195613768708e-01  3.1750595856893088e-01  3.4898162646796915e-01  3.5981186310073660e-01  3.7225502258496324e-01  8.8830326144391625e-02  1.1057353349516501e-01  9.2433190624472666e-02  0.0000000000000000e+00  1.7041299429099963e-02  1.2908100111063681e-02  0.0000000000000000e+00  0.0000000000000000e+00  1.9036918129412651e-02  2.2104899384804682e-02  2.7100664478296215e-02  3.3815026420701833e-02  6.9438015196974590e-01  7.0647044458288333e-01  6.8423423630501568e-01  5.5133367671688160e-01  5.6857747761953881e-01  5.5561155150904618e-01  4.0324862379470611e-01  3.7792485748236754e-01  3.8997598972771486e-01  4.7689149024982841e-01  4.8608847393288518e-01  5.0189448189702968e-01  4.0181144504747879e-01  3.9876328417916057e-01  8.4614271996997933e-02  1.0597271373947960e-01  9.0534435805229366e-02  8.0647664100913036e-02  2.2368605101477496e-01  2.1235009379036954e-01  2.0343794537935783e-01  3.5484307491236661e-01  3.5259793752485613e-01  3.7073378737534846e-01  4.1202015744000597e-01  3.8729071988417002e-01  9.1674111274304593e-01  9.1477466545697805e-01  9.2005072130396282e-01  9.3854404339305486e-01  9.3689267888434113e-01  2.8077704072605675e-01  2.5670560410187293e-01  2.7452388603544498e-01  3.2876845294023899e-01  3.0058830955867011e-01  1.8264040111020111e-01  2.0113426595201872e-01  1.9012274764872314e-01  2.1075869137167291e-01  1.9248605234080160e-01  1.9278358131245413e-01  4.9419521991163690e-01  4.6754885927176704e-01  4.8085271326677009e-01  5.3214877557112572e-01  5.2172982009135838e-01  5.4646778996728773e-01  6.6220384353396355e-01  6.5466158680785635e-01  6.7633435440216338e-01  7.3921089287012798e-01  7.2855749797508429e-01  7.2827346797672698e-01  8.8336387980841458e-01  8.8651952480647445e-01  8.9290701825507779e-01  8.6556020159166669e-01  8.5483983339881353e-01  8.6495093650989641e-01  9.1717112240144361e-01  9.2149274141897164e-01  9.2490579196499689e-01  4.3353606491217589e-01  4.1426981009625385e-01  4.1343493421001343e-01  2.4912846658845503e-01  2.2147299773630935e-01  2.3394932713949551e-01  1.1740660907735284e-01  1.3546476488959311e-01  1.3615307372921226e-01  1.8281523618299514e-01  1.6877079318196794e-01  1.9093527613452405e-01  7.5521325797887950e-01  7.4953267054985295e-01  7.4075329828332515e-01  1.1499859143586302e-01  1.2626695646743033e-01  8.2012192497027647e-01  8.3518157424558104e-01  8.2891193992344891e-01  8.5448736606510733e-01  8.6870765254935300e-01  8.6003463340774955e-01  8.2018754515250814e-01  8.3605806479581879e-01  7.8071215242947323e-01  7.6792709219739819e-01  7.7038617225719708e-01  4.8995277024135880e-01  5.0613460080654504e-01  4.9587098752576064e-01  6.8648158159954242e-01  6.6532737574210132e-01  6.7519769020012144e-01  3.1993607976751409e-02  2.0753777650722640e-02  3.5507708249087472e-02  3.4703671988498697e-01  3.3469589098728042e-01  3.3092371259235198e-01  3.7333722043226231e-01  3.6630256709364412e-01  3.9038396202178527e-01  1.1582301239385528e-01  1.2098974488905877e-01  1.0592277642914515e-01  1.6203041670498608e-01  1.5909925423356969e-01  1.4648124280849703e-01  2.4219250108758167e-01  2.4985302384927793e-01  2.3106190203848587e-01  6.1936322758398477e-01  6.1104448392829203e-01  6.2549429059334494e-01  8.4898349651660698e-01  8.6142532109839154e-01  8.4534705240548347e-01  8.7680685548751269e-01  8.7607307193590034e-01  8.6585904830142491e-01  4.9816458262996230e-02  3.0482379223689408e-02  3.5444817687769588e-02  9.1064789855480477e-01  9.1857265272423338e-01  9.1300837260249612e-01  9.0991481772531435e-01  9.1512247753800080e-01  2.2914864360512663e-01  2.1362095224159652e-01  2.3032720629815623e-01  2.1395841586286074e-01  5.6743734186568118e-01  5.8734846344962666e-01  5.7718845361716142e-01  6.0141355939660646e-01  6.1706526958775143e-01  8.5710596968198671e-01  8.7093083613740774e-01  8.6164254580896182e-01  8.8752917309992096e-01  8.9660128515814796e-01  8.9064641161364044e-01  8.8655336263635676e-01  8.9503030495027158e-01  8.9770484483672108e-01  8.0993714128848326e-01  8.2596498285898079e-01  8.2729836068224250e-01  9.0350329684957620e-01  8.9956432464728109e-01  9.0619666990024417e-01  5.8028016309772723e-01  5.9844108940705110e-01  5.7268053976501010e-01  6.4202801095462092e-01  6.3710969553773544e-01  6.5611065041292416e-01  4.7949210861834540e-01  4.5065335266210876e-01  4.7209211362729175e-01  5.2907206089676662e-01  5.2517559025990312e-01  5.1593336891723007e-01  3.4801815803988367e-01  3.2504260535226076e-01  3.3829952756175485e-01  4.4088596094303928e-01  4.1885226823319105e-01  4.3536532161440106e-01  4.4617914680152937e-01  4.5395770267673702e-01  4.4756692226440753e-01  4.6614885222684699e-01  4.6004856068267919e-01  1.9801610988690474e-01  1.7733854552106332e-01  1.9771243431282678e-01  1.6022575049368865e-01  1.7819756984779128e-01  1.5418431536950608e-01  6.9858903368955083e-01  7.0159535423945130e-01  6.8384565189855107e-01  6.1667956222228282e-01  6.9895066508569959e-01  1.5088305388531084e-01  1.3287369487665929e-01  1.5681792027385108e-01  1.9823114912998133e-01  1.7806432160190735e-01  2.0213770273180653e-01  1.8616527563150426e-01  2.0269124091947990e-01  2.0342897797733417e-01  1.6016416301389222e-01  1.4034550724472053e-01  4.2948983237667535e-02  2.5517607209343398e-02  4.5748461311476557e-02  4.6015625073340991e-02  5.2072893092274870e-02  6.2223211286558062e-02  1.4598059187977536e-01  1.4733288700915800e-01  1.6044793554799142e-01  1.7725466591913044e-01  1.7520358174640355e-01  1.6181824886399432e-01  1.5177833139006383e-01  1.3382180475772509e-01  1.3186947850524988e-01  2.9052696428413632e-01  2.9736501179783847e-01  3.1536679615152996e-01  4.8091626439278956e-01  4.5811069877790084e-01  4.8527940470622472e-01  4.7358612730388389e-01  4.2129360309934188e-01  4.1292156203777858e-01  4.4093609477774459e-01  7.8275144702539878e-02  6.9918280009919134e-02  1.5709306952773544e-01  1.6876591504966787e-01  1.7182989462088152e-01  1.1000753157199059e-01  9.8945329552456704e-02  8.2434926918320595e-01  7.4159237670515210e-01  7.2585832521058036e-01  7.4664670859509963e-01  4.8010482137349408e-01  4.6894621499473088e-01  4.9362517999150129e-01  4.4445664846333166e-01  4.4979545245597008e-01  1.1160986306541466e-01  1.3206552293648341e-01  1.2368125298806157e-01  1.4057821398866949e-01  6.6454623676158486e-01  6.7270683011401966e-01  6.4784331421130803e-01  6.3967289166920394e-01  5.6110716915553094e-01  5.7342191443341095e-01  5.2110451625146581e-01  5.1513538573366213e-01  5.0213938595174834e-01  3.5364265063934103e-01  3.5886400769235399e-01  3.4260418614136279e-01  3.1032687643293400e-01  3.3381361938610493e-01  3.1931472417853285e-01  4.4277870170061329e-01  4.3221712890366476e-01  4.1692161096482094e-01  4.0207777358477598e-01  4.2445788124703643e-01  7.8608291762633820e-01  7.7100981364120846e-01  7.7772930450561717e-01  7.5856653284937969e-01  7.4108255123269506e-01  7.5568045238775561e-01  7.6778595744443989e-01  7.6830965714419064e-01  7.8032970619903141e-01  3.0900848930992306e-02  4.3740556298125351e-02  5.2796456972375269e-02  1.1535653349112776e-01  1.2181748209257102e-01  1.0578609798810629e-01  9.1367242538062121e-01  6.5709260581719975e-01  6.3737152004080966e-01  6.5185011638276424e-01  6.3090103729277391e-01  6.3430759956595095e-01  6.4580529533218223e-01  6.3005913044037110e-01  6.6565790262881219e-01  6.6138463808248005e-01  6.470726013