<?xml version="1.0"?>
<VTKFile type="UnstructuredGrid"  version="0.1"  >
<UnstructuredGrid>
<Piece  NumberOfPoints="1134" NumberOfCells="2149">
<Points>
<DataArray  type="Float64"  NumberOfComponents="3"  format="ascii">-0.5441219212998575 -0.358688083414564 0  -0.5765776306118481 -0.3686864440037019 0  -0.5569902787287407 -0.3268101618816875 0  -0.8410975717287933 -0.1395072905294205 0  -0.8354859562490059 -0.1121393047518148 0  -0.8160414078151036 -0.143940225846131 0  -0.2532586164762539 -0.4337438936396583 0  -0.2604143965391758 -0.3998650934601126 0  -0.2797158256545105 -0.4216369957322594 0  -0.1025954134604321 -0.4546232205523414 0  -0.1266730491007733 -0.4918819546073589 0  -0.09691916730404182 -0.4847005572060625 0  -0.7940852375801325 -0.07137316872466712 0  -0.8129656909437549 -0.04165552122524915 0  -0.7656060483003411 -0.05182846953038278 0  -0.4373093509364797 0.001634310771041625 0  -0.4640165526929844 0.008695773119353517 0  -0.4329343824233777 0.0290702357416256 0  0.1199221538977548 -0.9000079375435778 0  0.1431677361889669 -0.9417704170872273 0  0.1056882459418261 -0.9304575809500495 0  0.06824102899309431 -0.8796965027637446 0  0.0519845080383419 -0.9104794197143635 0  0.03857802175663441 -0.8837154177433899 0  -0.03165678354576521 -0.2907079637490915 0  -0.04714016004606073 -0.2525292510384027 0  -0.06022108807420518 -0.2800632191856926 0  -0.09822467029515634 -0.7285165233009198 0  -0.1119313494050668 -0.6971613808680818 0  -0.1326310079111961 -0.718115325281744 0  0.3007311546569934 -0.7132751337163624 0  0.268649511610813 -0.7227605910392395 0  0.3051159099885882 -0.74565385731203 0  -0.3666163925164496 -0.5816141831357999 0  -0.3691133504593386 -0.6228377920227477 0  -0.402301941823315 -0.5984340698406342 0  -0.3913506256423302 -0.5142670598452614 0  -0.4250310656908753 -0.5266367026041526 0  -0.4159211932663701 -0.502553863198151 0  -0.2727357442370261 -0.1139698713880369 0  -0.2943017683746092 -0.1565196089387307 0  -0.3063227185248055 -0.1236867182352507 0  -0.2968302873539247 -0.4466149365476618 0  -0.2799475439007661 -0.4802073939810227 0  -0.2624121975818798 -0.4593829131919249 0  -0.7454603311488852 -0.5423613958312614 0  -0.7103791313606034 -0.5507540080827487 0  -0.7228418780588967 -0.5253322268461387 0  -0.2155186650080483 -0.4084486310043501 0  0.1877994808039191 -0.4789624818228146 0  0.18857227839039 -0.5115637934749382 0  0.164906824444952 -0.4974715723303403 0  -0.5535428208305013 -0.2292849437422536 0  -0.5648012582384903 -0.2696014635242177 0  -0.5917829336642244 -0.2371162115705051 0  -0.3350033003568829 -0.7359157713821145 0  -0.3584096184419623 -0.7678723640737219 0  -0.3283212549976047 -0.7709913427707766 0  -0.166193953523619 -0.4717314232244936 0  -0.1702025126876615 -0.4295335658824921 0  -0.1385274804499625 -0.4478139398932881 0  -0.8478530373173159 -0.046397161777502 0  -0.887198166494877 -0.0655626578819532 0  -0.8577071879977455 -0.07267113318337655 0  -0.3099359594350449 -0.7950125531888582 0  -0.2751475593023677 -0.7596201914282705 0  -0.306130994928509 -0.7504333759224151 0  -0.274329400818586 -0.8766984697653405 0  -0.3038839355727364 -0.8409778359044735 0  -0.2629258197877798 -0.8371766448902915 0  -0.5553672154460828 0.1314190645461342 0  -0.5461213685775101 0.08606836292998724 0  -0.5703826334799396 0.1047399587464832 0  -0.3455696877361558 -0.4362448378226669 0  -0.3258580942965404 -0.4093110514399137 0  -0.3609297973707213 -0.4075234269722106 0  0.0815758327469593 -0.2844987878142674 0  0.1038721286438136 -0.3192060348676103 0  0.1154745574315511 -0.2708647663994368 0  0.08604300669319788 -0.3545557692735667 0  0.0643116231438611 -0.3207705529051588 0  0.1295464534015014 -0.3939636575994285 0  0.1064338617198637 -0.4124464014104867 0  0.1448361757922854 -0.4208559592839465 0  -0.3039688822958979 -0.06416621281764143 0  -0.2711500678832953 -0.07828007751554661 0  -0.2754333760943877 -0.0480766159912839 0  -0.8852110950197181 -0.2137091567995184 0  -0.9236289974331147 -0.2217362706346047 0  -0.885122883614721 -0.2467618146896367 0  -0.7301573753217775 -0.5809193455547783 0  -0.7209730744814395 -0.6238872753123897 0  -0.6950428051256249 -0.5983052377397224 0  -0.6979193891197244 -0.3546402351623636 0  -0.7138531650202711 -0.3307417459363939 0  -0.6743728412343886 -0.3384522276757841 0  -0.8291530868949156 -0.3094176941438118 0  -0.7896920172208287 -0.3008184215994915 0  -0.8053238789699632 -0.3239263958397401 0  -0.642138544674596 0.01257226564310446 0  -0.6878262986643295 0.02886723136166872 0  -0.6526160876609264 0.05539242199523189 0  -0.1266635457260406 -0.08674110354568812 0  -0.1635254523745491 -0.08816857548143278 0  -0.1325884900385813 -0.1135548225961865 0  -0.1706755439590506 -0.1568763186035039 0  -0.1258516062977613 -0.1401761466032385 0  -0.1455336670512015 -0.1721333993142492 0  -0.4071712888596457 -0.1971673901732101 0  -0.4206722921022882 -0.2196895306739997 0  -0.3863062381333997 -0.2122001525785641 0  0.1253379956719456 -0.8371358306598619 0  0.1322411385722026 -0.8061167926585079 0  0.1479475933651601 -0.825889841457792 0  0.2934164918890293 -0.8612774348549732 0  0.3227623235642592 -0.871538612125301 0  0.2822172595041592 -0.8910264873869124 0  -0.2061434166370174 -0.4520053066724423 0  -0.2333317737902565 -0.4522421037727033 0  -0.1571382082759987 -0.7950905585620359 0  -0.1218264222929869 -0.8096543748250079 0  -0.1458876500424629 -0.7688446150262466 0  -0.6774939983300903 -0.6302248068985857 0  -0.6463983005318535 -0.6642643784626333 0  -0.6470760980630753 -0.635376377384978 0  -0.9238680557959388 0.1659280723833087 0  -0.9355506157828866 0.2068678302057455 0  -0.9051323095323698 0.1934112459210854 0  -0.6291120070625913 -0.03469761255245083 0  -0.6686754428094558 -0.02017057174366552 0  -0.614649649400687 -0.2054816055707221 0  -0.6359155503292063 -0.2424224662444199 0  -0.4738807575056957 -0.01710803163056955 0  -0.5057545180527914 0.01973141337738394 0  -0.5106957648776452 -0.0138485558013659 0  -0.2270263162209431 -0.9111383718152852 0  -0.2409410440392607 -0.8805449402730079 0  -0.2087104940359062 -0.8843467210900062 0  -0.03649879830564495 -0.7024508719317977 0  -0.05434316291145553 -0.7463128781214077 0  -0.06837436388434862 -0.7179116564338537 0  0.02271111445801087 -0.2466006138022283 0  0.04921455287866645 -0.2136283899225227 0  0.001287880775235811 -0.213280315875006 0  -0.08819145914922825 -0.2560134861104798 0  -0.08294274772807189 -0.2116891776520932 0  -0.1174923456135461 -0.2244044812744155 0  -0.5416135842843132 -0.4433680349964033 0  -0.5466266768312872 -0.4074183480198355 0  -0.5764599568157619 -0.4465298604780202 0  -0.5723784974555806 -0.7508609640271169 0  -0.5578509213974128 -0.7135211595210424 0  -0.5853593329972577 -0.7221437485714772 0  -0.2120900412591529 -0.4820426978058877 0  -0.1866638372586035 -0.4879174965664346 0  -0.2344655869365065 -0.5518887928560327 0  -0.2232202113522217 -0.5843276522251416 0  -0.2019937614081083 -0.5441247067071635 0  -0.4975666954863948 -0.134795490103003 0  -0.5060921069087164 -0.08984808156695877 0  -0.5428072582908655 -0.1224237198472427 0  -0.3820378504744532 -0.07720900165447629 0  -0.3768681022823627 -0.03162498317288738 0  -0.3450701945451619 -0.05831639246971808 0  -0.5815381566199812 -0.1488753121763688 0  -0.6037984335336571 -0.1128166049525345 0  -0.5730811055580373 -0.1162124343825699 0  -0.7829900343778728 -0.3406456350858423 0  -0.9938441702975689 0.07821723252011555 0  -0.9907662554463532 0.1173258487801733 0  -0.9615686525209594 0.0953525208886026 0  0.0231928155670889 -0.1802746947302631 0  0.02304601464950326 -0.1450050219121411 0  0.004161121639675046 -0.1627187673287056 0  0.1294695806058722 -0.1777167641614958 0  0.1199760160677406 -0.1471804808004611 0  0.1015414005360553 -0.170729792421993 0  0.01585239978995566 -0.3534535003367468 0  -0.03178540446998922 -0.3576696617950668 0  -0.006497935904761709 -0.3721547028134982 0  -0.5428943701632762 -0.5556008459889474 0  -0.5625322794123481 -0.5239646311849037 0  -0.5344364592045275 -0.5204671722590559 0  -0.5770363405682046 -0.5686103056888767 0  -0.8840529801908102 0.07503033614843499 0  -0.854299198160419 0.05793764956431513 0  -0.8800080944261081 0.04762837752702911 0  -0.1174909263566684 -0.7718530525879488 0  -0.1763497559915594 -0.8818881596967517 0  -0.1698226233396077 -0.8378079409605544 0  -0.1937651770766264 -0.856786030724175 0  0.2529312799413386 -0.8012992728399679 0  0.2975684718453496 -0.8148220276284073 0  0.281642659294784 -0.7869587443019139 0  0.2144627031643363 -0.8917499236169515 0  0.2237873953233911 -0.9306213313090586 0  0.2347105033463606 -0.9074469009724188 0  0.02990886030073693 -0.6935332302827742 0  0.001158975109081618 -0.7311595646329223 0  0.03909134584814009 -0.7413311838754355 0  0.1588281316310452 -0.6615667801666836 0  0.1163965659875906 -0.6560203066685862 0  0.1406579619500511 -0.6957617206677086 0  -0.1241303955199356 -0.5682811077586559 0  -0.1227163133898359 -0.5343224432690959 0  -0.0875844305370822 -0.5509712758131395 0  0.2964390745302059 -0.4640277723462716 0  0.2569474812884434 -0.4728699081009705 0  0.283870811463501 -0.4866722052249291 0  0.2728222534553556 -0.5100957178319351 0  0.2455628306779195 -0.4973926927016669 0  0.2660995786479711 -0.5470486645584501 0  0.2465825874663043 -0.5244100450920918 0  0.2397701647893647 -0.550015317190814 0  0.0825405358755302 -0.6298483683324381 0  0.0877814960857464 -0.5885354120358075 0  0.06444242247063409 -0.6065635301263742 0  -0.6485729167868159 -0.1991468077150175 0  -0.6302378419866136 -0.1751544796858254 0  -0.7598339638778754 -0.3162715135673669 0  -0.7543728454763795 -0.2877235541198104 0  -0.1597243371445307 -0.1177650834275732 0  0.0455101775939576 -0.1178143478783519 0  0.01379263872750023 -0.1184911964587452 0  -0.019854766658668 -0.570384483292773 0  0.01002779297466803 -0.5953415153613334 0  -0.01592059019181793 -0.6089086201959784 0  0.09132515280281757 -0.6906991960991645 0  -0.4090925062851792 -0.021831
[...]
<PointData  Scalars="f_2282-2"> 
<DataArray  type="Float64"  Name="f_2282-2"  format="ascii">2.8446246836496769e-01  2.5647175255896204e-01  2.8933080781243359e-01  1.1380402189805136e-01  1.2180810891009375e-01  1.3386458690205505e-01  4.0745904693005813e-01  4.2664791814435699e-01  4.0455134109956475e-01  4.3515583782501210e-01  4.0305500815556750e-01  4.1359654773882687e-01  1.6000380469111705e-01  1.4595792291629930e-01  1.8548846739167552e-01  4.5636992466755100e-01  4.3646648185191622e-01  4.5862749849265805e-01  6.8651246473921596e-02  3.4364908810927727e-02  4.6729457852619435e-02  8.9576457055596276e-02  6.5615224417267595e-02  8.7946180611927396e-02  5.4849936358885909e-01  5.6641475780985073e-01  5.5158768519084056e-01  2.1311049018231112e-01  2.3794685625382561e-01  2.1704086489177779e-01  1.7985443749712068e-01  1.8233303282960936e-01  1.5298074249681440e-01  2.5374069307182856e-01  2.2260446950585422e-01  2.2493441544891546e-01  2.8907302591153533e-01  2.6294862008420433e-01  2.8381789170670324e-01  5.4660458045692961e-01  5.2538829438078838e-01  5.2690449754570257e-01  3.8074290013535589e-01  3.6451669054870167e-01  3.8613470704133845e-01  5.8214611554424187e-02  7.6243166330757561e-02  8.0369667642551559e-02  4.3855863163079467e-01  3.9779221199645221e-01  3.7332425933451840e-01  3.9005360623171936e-01  3.2883092273683689e-01  3.0647832125258123e-01  2.9640863500632464e-01  1.5085938457841219e-01  1.1797509480333840e-01  1.2573527678488186e-01  4.0919576449954292e-01  4.3830596375232589e-01  4.3312227964610361e-01  1.1668170289870480e-01  8.3842874344317891e-02  1.0711158392087947e-01  1.1347068991672041e-01  1.5111699193827940e-01  1.4878848688111970e-01  6.0742665815558435e-02  8.0302421624155990e-02  9.3428274359748625e-02  3.5237225822506280e-01  3.6709743128563033e-01  3.4491257865741870e-01  3.6407949111423166e-01  3.9100792845291021e-01  3.7386205199655242e-01  5.4665672322421843e-01  5.2383828628610463e-01  5.4741763270311228e-01  5.0577251077396079e-01  5.2884257734241669e-01  4.7249961007623886e-01  4.6425887316690945e-01  4.5052342543785001e-01  5.3830021782169479e-01  5.5368774523567577e-01  5.5509503199015853e-01  6.6962703572932519e-02  3.6032546029353442e-02  6.0402086548301204e-02  4.9395069206721605e-02  3.3066019143387762e-02  6.1835334728734065e-02  1.7241326576993518e-01  1.6885272071569052e-01  1.9640466077581098e-01  8.7602016397424071e-02  1.2021836978877293e-01  1.0107064931102598e-01  2.9261530870539704e-01  2.5295461143642722e-01  2.8160574920325521e-01  6.0715896115715617e-01  5.9637404401235816e-01  6.0025469269634091e-01  5.7827694411218289e-01  5.9577074764502258e-01  5.8047794712066214e-01  4.4528631892400677e-01  4.2862473466178552e-01  4.5367489761687529e-01  1.1883880741837712e-01  1.4374916834405624e-01  1.2482250464032327e-01  6.7576584608113652e-02  5.2182212838568338e-02  4.8257871308032510e-02  4.1166310412362672e-01  4.0208219181486599e-01  1.4899793478543993e-01  1.4196158888334157e-01  1.7252318405091122e-01  5.5605192313180736e-02  5.4311229312848229e-02  6.9703782877505477e-02  4.5282628994748525e-02  2.9693227923906603e-02  5.5028353149239102e-02  3.0269626850694575e-01  2.6971148018868524e-01  2.8743161616314022e-01  2.5993809731137968e-01  4.2906588729047979e-01  4.0457540420979959e-01  4.0057772355467397e-01  4.4400739977132529e-02  6.4919728205334745e-02  6.8583877869160981e-02  2.4012770613991744e-01  2.0168734189924536e-01  2.2489380557880148e-01  5.7096835377230892e-01  5.8354855228928848e-01  5.8601243995369512e-01  5.5970805765889575e-01  5.7996085256375474e-01  5.6830367211518251e-01  2.4305259303517052e-01  2.5882402349978245e-01  2.1791765844666391e-01  4.0960927607309940e-02  7.0696661370375127e-02  5.1749361794602863e-02  3.8831561576004098e-01  3.9146836771707882e-01  3.2810670139235276e-01  3.0677415876124098e-01  3.4441199760368629e-01  3.9720650644213523e-01  3.9832322685548954e-01  3.6415234875751390e-01  4.8948873471441984e-01  4.9725099342313916e-01  5.1517247913975572e-01  3.2791993477493564e-01  3.1620538889660738e-01  3.4080538632832830e-01  1.1296304465576069e-01  0.0000000000000000e+00  0.0000000000000000e+00  2.3598130598111888e-02  5.9804035616955442e-01  6.0883776564360959e-01  6.0388510048769284e-01  5.8333428083589167e-01  5.9480781766706770e-01  5.9148656528875809e-01  5.1266400202364304e-01  5.0971104632320585e-01  5.0081342567284870e-01  1.7734066019155617e-01  1.8412951716989892e-01  2.0393442481853982e-01  1.4927157457065554e-01  8.5611731268937188e-02  1.1106138490123894e-01  9.0317008833269402e-02  1.7407730245389555e-01  7.5809007484974322e-02  1.1226638076877406e-01  9.2499967993625393e-02  1.2406663709861113e-01  1.0163277396852036e-01  1.2789507358404079e-01  6.1819428843379924e-02  3.0249011264507825e-02  4.5824108053615399e-02  2.4809269884161003e-01  2.1633476374644917e-01  2.0679594615218722e-01  2.5982829724926382e-01  2.7204922400123538e-01  2.3471501244516799e-01  3.4340864214898831e-01  3.7085015977973507e-01  3.6290782767099344e-01  3.6876730901828564e-01  3.7900500283555599e-01  3.5844624252117713e-01  3.4603212902736674e-01  3.6550903223539061e-01  3.2096999603191234e-01  3.4512974630675092e-01  3.2816851501182415e-01  2.9844717466115123e-01  3.3233842409376230e-01  3.1954351005221004e-01  2.6156742404594213e-01  2.8228071244294267e-01  1.3833595779577509e-01  1.5146348990175962e-01  5.9155998993159575e-01  6.1466473928723731e-01  6.1597508404051737e-01  3.5244010510728052e-01  3.3196289511767918e-01  3.2029378260512986e-01  2.4599253067172805e-01  4.7573289379484934e-01  4.8037410112939471e-01  5.4920047264671301e-01  0.0000000000000000e+00  0.0000000000000000e+00  2.1997337593020680e-02  5.9789059862308688e-02  7.9033948282099670e-02  5.4483160424796465e-02  1.5532117103674922e-01  1.7345091434766782e-01  3.1339150561110592e-02  3.2582575587799686e-02  1.5671085310080900e-02  3.9704837542316657e-01  3.6717446147803462e-01  3.7478013838997393e-01  4.1051530047603257e-01  4.2657675761449043e-01  4.0293848736179227e-01  1.4126859290479285e-01  1.0790043399008582e-01  8.0681594928373124e-02  9.1936165698413314e-02  5.6560999970925474e-01  4.6081800357252689e-01  4.4774085215079240e-01  4.4147539588024654e-01  4.8140226948225245e-01  4.9666053833655921e-01  4.9040090900900130e-01  5.1177324587608175e-01  5.3300478675707019e-01  5.2788373808103495e-01  2.3427043796784000e-01  2.0299220907217000e-01  2.2259249702687900e-01  2.8775464798116279e-01  2.9001156505753956e-01  2.6277577901537430e-01  1.9504266897262729e-01  1.9610356665924300e-01  1.9653758220277162e-01  1.9668401367194216e-01  4.2813087519394089e-01  4.3844146167946380e-01  4.4554328837752821e-01  4.7791151845655361e-01  4.9061575160614979e-01  4.5832835439635516e-01  2.1968626030834981e-01  1.9990210815008647e-01  1.9287079749049957e-01  3.6460672391835236e-01  3.5594229677423189e-01  3.8149294594823047e-01  2.8569187121200190e-01  2.7445876609865066e-01  3.1313147958445053e-01  2.8019559757200330e-01  2.5000718080080447e-01  2.8048866809319595e-01  2.1979846858419977e-01  3.1643582393896952e-01  2.7957407782471289e-01  4.3690796127440049e-02  3.3414543174592484e-02  6.3627533078868981e-02  4.8771042574419596e-02  8.4041984219260873e-02  6.1301093447698331e-02  7.9622151395417978e-02  2.4461324771012186e-01  1.4793138374000317e-01  1.4730733849374419e-01  1.8050591053752904e-01  2.4455257057158797e-01  2.2444921852272798e-01  2.1343267979390204e-01  1.8971061196126243e-01  1.8293688290444041e-01  3.0878633390192234e-01  3.0419862960941380e-01  2.8496210872703626e-01  3.3075620702969938e-01  3.1029670504674539e-01  3.0795825703750579e-01  3.4040822684791455e-01  3.1933110582814284e-01  3.2975861337792367e-01  2.4360359379041321e-01  2.6435907663957470e-01  2.6787056517575164e-01  1.2139462039401251e-01  1.0268711108381331e-01  1.2897785801101691e-01  1.0411307199328403e-01  2.2909243586803743e-01  2.5844751145402317e-01  2.2930572615106701e-01  2.9089744149927144e-01  2.4931109547097247e-01  2.2771540754390146e-01  2.6606196681633981e-01  1.9387238359479980e-01  2.0230328519624755e-01  2.2382884263507036e-01  2.0785624592350610e-01  2.3323847695024427e-01  2.0467716315531109e-01  1.6533539984776116e-01  1.5592944851746460e-01  1.8351199411374536e-01  3.7809741234100175e-01  3.7292303216451889e-01  3.9024341146268182e-01  4.1349711660425070e-01  4.2359757501683731e-01  2.8766857310264615e-01  2.4932954692138257e-01  2.5762260427861977e-01  6.9298084531890042e-02  8.1031822422490837e-02  5.7717078115693043e-02  1.1240285566784412e-01  1.1295188848649364e-01  5.0955580012253650e-02  7.4120047745970058e-02  5.0618691286366216e-02  0.0000000000000000e+00  0.0000000000000000e+00  2.5571839852007758e-02  1.0618914128362403e-01  8.4163949561132406e-02  1.1646131657585372e-01  4.6027464146381497e-01  3.6817648675961601e-01  3.9754573358148149e-01  6.6629811979632941e-02  3.1773008004502647e-02  4.5579836311055534e-02  4.1031367239012038e-02  6.4876459953932084e-02  0.0000000000000000e+00  2.7329569400595517e-02  2.3682313793633763e-02  3.1713191963333515e-01  2.7718646699661686e-01  2.4543417454520522e-01  1.8172317454958158e-02  3.8326452905310768e-02  0.0000000000000000e+00  1.8492021101650991e-02  5.8552511464834145e-01  5.6559255902662442e-01  5.7294906940841750e-01  2.9837518888555670e-01  3.0918720565076901e-01  2.8212008429572005e-01  3.2087581458663927e-01  2.9720274175731526e-01  3.3830364322846207e-01  3.8733009563686482e-01  3.9650615802414857e-01  3.7530910166777448e-01  4.4752956954479661e-01  4.4053128879183373e-01  4.1883110474969765e-01  4.4631230128432747e-01  4.3008426215295414e-01  4.4057483363965178e-01  4.4655807443804851e-01  1.2558480827681423e-01  1.3215157668581631e-01  1.1455404021844706e-01  2.7897932708857970e-01  2.4912552856654041e-01  7.7993925813738152e-02  5.5246723993192470e-02  1.7632340209314361e-02  5.5937745810788320e-01  5.6857597047996566e-01  3.4938669560859413e-02  1.7858838408363043e-02  2.4793191554080313e-01  2.2590520322058974e-01  4.2771816393856410e-01  4.5065015392936875e-01  4.2474168850863231e-01  3.6544708526524583e-01  3.8813652571743668e-01  3.6157313568192084e-01  3.7789930208730010e-01  3.9214257437902034e-01  4.1207231918984155e-01  3.7932643260653637e-01  3.0669825815850760e-01  2.6705355403939640e-01  2.8042355135235097e-01  2.9938229716283626e-01  3.2316639458497831e-01  8.6056322804647131e-02  9.9496172443211253e-02  4.5217059718397035e-01  4.7066285593320428e-01  4.5000868580136688e-01  3.5413862068228746e-01  2.7467698748182984e-01  2.2669967381673750e-01  3.2025182115078217e-02  2.9757011665350910e-02  2.1794647684010585e-01  2.2727754543841261e-01  2.5422430941771690e-01  1.2137342075310442e-01  1.1642915960511258e-01  1.1785268236549522e-01  1.4423768351196417e-01  1.2450932609150978e-01  2.9831806238016713e-02  1.4676673857199216e-01  1.2600014993732844e-01  1.4421981210690146e-01  1.0327287105899099e-01  3.1898604497275058e-02  1.6437510153143587e-02  3.5514072721843849e-02  2.3751300408531583e-02  4.6645706839830665e-02  0.0000000000000000e+00  0.0000000000000000e+00  1.9533285333805907e-02  4.5321280068094855e-02  9.2984357860366240e-02  8.1606850408838083e-02  6.2560519171616036e-02  3.4196207160556900e-02  4.4436320333039341e-02  2.0044940289156831e-02  5.4149930490874611e-02  3.6110508043745028e-02  4.0944159206295190e-02  3.4164669028197141e-02  5.6922741744925863e-02  4.0261118690590847e-02  5.4287504789944319e-02  2.1387160991023248e-02  5.1081019062644106e-01  5.0609258543701663e-01  4.5598610793302102e-01  4.7103802333618017e-01  7.7441725143754650e-02  1.7150597786221089e-01  1.3038707551254514e-01  2.2175261933712936e-01  1.9274558986350310e-01  1.9229737661564991e-01  1.7077922918253916e-01  5.1614408485758834e-01  4.9763729685066521e-01  4.9610244826460526e-01  5.1988208212256781e-01  4.8831771462719270e-01  5.0406209637961397e-01  4.8401145121004802e-01  4.6395475089406168e-01  4.8207432846984039e-01  6.0314444440142323e-01  5.9195121278089069e-01  5.8502293282804807e-01  5.7166803709631420e-01  5.4397874003795721e-01  5.4032025602186073e-01  1.4321538924061761e-01  1.2130479459386430e-01  1.4284205619130078e-01  1.0877043877926779e-01  5.3646568535902028e-01  5.3896065820268391e-01  5.2064138699263773e-01  3.8990665261699892e-01  4.1871897369138933e-01  4.0676113549184689e-01  4.6216012314500071e-01  4.0843211167190213e-01  4.0111868006061380e-01  4.0055468561565666e-01  4.2562694668286932e-01  4.2442840973680146e-01  7.2528263970328397e-02  5.2618273116662437e-02  6.9359223032187042e-02  8.7535878502106354e-02  6.0607033507411839e-02  5.8990430068122068e-01  4.5746136690419364e-01  4.5662231281649562e-01  4.7216527970990296e-01  4.8178640057090472e-01  4.7749037106915848e-01  4.8137832292587918e-01  1.5798445099384489e-01  1.2539455878001157e-01  1.3184593700749150e-01  1.3606126670514870e-01  1.0742819983677233e-01  1.3076467951712689e-01  3.2442595558994369e-01  3.3597545928459710e-01  3.0070510786703120e-01  3.4302243535481286e-01  1.5727871735715668e-01  1.9290395361756660e-01  1.8329665772671475e-01  2.3153662926719717e-01  3.2857321413106255e-01  3.4948039230378314e-01  3.5072796162017411e-01  3.5303775670240634e-01  3.3123490882169271e-01  2.8904292024119937e-01  1.7511326735039109e-01  6.3692304992804552e-02  2.7411021443411284e-02  8.1622138879639233e-02  6.0808234476079220e-02  1.7374765145993842e-01  1.9299505707925038e-01  1.6452608907668503e-01  9.4031262678951399e-02  1.2167785143140507e-01  1.0409540982569400e-01  1.5256780024084637e-01  1.3763005244624305e-01  3.2797697547330273e-01  3.3904430034671651e-01  2.5873842231625316e-01  3.4593821775367223e-01  3.6436703345207239e-01  3.3653756824383557e-01  3.2713502145241374e-01  3.4475165515488032e-01  4.8704638192904028e-02  5.9565588825021686e-02  3.9801199572285215e-02  4.5525799363709603e-02  2.1814616764859195e-02  1.5114592032191071e-01  1.2785579588192555e-01  1.5951090486345915e-01  1.7883099134834279e-01  2.0320983255107558e-01  5.4325196258714803e-01  5.2639214905933529e-01  5.0341127874405378e-01  4.8890116612711032e-01  5.6489669190664438e-01  5.6441686360296672e-01  1.2442575888657691e-01  1.4596664753916350e-01  1.0686497440258107e-01  8.5898185832447238e-02  1.7156819782859598e-01  1.3669915546179437e-01  9.5153083831664251e-02  1.0431032158138952e-01  2.8130232733995747e-01  2.5704914369299126e-01  2.7553052018614588e-01  2.0003057827669207e-01  2.9724729761975183e-01  2.7279415504796822e-01  2.7778684253328056e-01  2.6629901237287795e-01  2.4614274781757334e-01  3.4647112764484939e-01  3.7225773346769131e-01  3.7153491715552311e-01  3.9157270291332885e-01  4.2190813657988263e-01  4.3009756288689061e-01  4.2853962723861300e-01  3.2706117467978396e-01  3.6260936564613400e-01  3.4392393620303924e-01  3.6092465829956427e-01  5.1162050405631199e-01  3.4550313343781713e-01  2.5637182829435168e-01  5.3899633761952603e-01  5.5319613049857008e-01  3.6352770106824139e-02  6.9095182543924771e-02  4.7403361841235003e-01  4.5443614968077839e-01  4.6855464820940085e-01  5.5262387013637770e-01  5.6791288812354268e-01  5.5368462774192129e-01  5.3769586447534734e-01  5.4594735433897412e-01  3.2809197956583443e-02  2.5484575062196685e-01  2.7283655537699381e-01  2.3477928316498894e-01  1.9994556906833669e-01  1.7277990724878770e-01  5.9992807867995968e-01  5.9592697509167314e-01  6.0642741353385921e-01  6.1295652382413734e-01  3.6857063131925757e-02  2.7853850211770038e-02  5.5368532412987718e-02  7.7353473606678810e-02  1.0114083489929274e-01  9.7833205806113904e-02  7.1980909653130878e-02  1.6530506650209459e-01  1.8108340987332622e-01  1.5485957592844876e-01  1.7748248463581537e-01  1.7632031261133210e-01  2.0828331325401905e-01  2.1035984832973867e-01  5.6921353758947513e-01  5.6603059119060894e-01  5.8050779612894376e-01  5.2748924299420763e-01  3.1277442797759181e-01  2.0131851212551133e-01  1.4565566162694121e-01  1.3044927139241866e-01  1.3290380040764591e-01  1.3610161776642138e-01  3.7879530510811676e-01  3.3798014612431265e-01  2.9812066684747357e-01  3.0533928519356013e-01  3.5187864966139615e-01  5.8550542678800543e-01  5.9054100144187738e-01  3.0967108127040716e-01  3.2877910173846564e-01  3.2375732625551790e-01  5.8054411280424412e-01  5.7460606274527848e-01  5.6757817964001400e-01  5.5800904030185172e-01  5.4085431574051712e-01  4.4249894005653247e-02  7.3245252493227705e-02  0.0000000000000000e+00  1.7574361903652400e-02  3.4251224740207653e-01  3.6648489527302763e-01  3.4727495192780594e-01  3.2302843931284642e-01  1.7362580536403154e-02  1.0636549169136744e-01  9.5338221941723922e-02  1.9296100183785156e-01  2.2085888883081387e-01  1.1030297103281676e-01  1.9641028674942240e-01  2.7044357333637103e-01  1.7271012875720204e-01  1.7463068017065939e-01  2.0028923050901343e-01  1.8813482911861218e-01  1.5334399818985173e-01  3.4581714438358407e-01  3.2281992188362102e-01  3.4024806975442584e-01  2.4897601200643011e-02  5.3065124821858867e-01  5.2433089892869300e-01  4.5168417829085694e-01  4.7292076592585697e-01  4.3197003275275581e-01  4.1142013783740949e-01  4.7864063955897107e-01  4.9764492364775731e-01  4.9257586012390242e-01  3.0929150085396634e-01  3.0495410264779704e-01  3.2968276909758176e-01  3.5154565943467314e-01  1.2596417856770667e-01  1.4543733064194564e-01  5.8199829891119326e-01  5.9143951432088260e-01  1.0070886322384361e-01  1.2349593898866372e-01  8.5385307156756157e-02  1.0410082667445236e-01  6.1396983801639382e-01  1.7287995153947452e-02  1.9641506134877293e-02  8.3233766168825121e-02  1.6021688827244904e-02  1.5244209109871258e-02  1.5730818838095154e-01  1.7416380244333390e-01  1.2716640810865576e-01  1.2480443951505292e-01  3.8875605370949168e-01  4.8957069450109542e-01  4.6694638248939430e-01  4.8864620970474804e-01  4.9041462544329500e-01  3.4705546351688932e-01  1.0902869186074664e-01  9.6404891471354198e-02  3.1415220570959079e-02  1.4842993620387730e-02  1.0254977433183486e-01  4.6140442612897604e-02  6.3698930860299249e-02  4.9774572138192211e-02  4.8098191721914645e-02  5.5175903806347060e-01  5.3617703467075484e-01  5.3791968262786283e-01  5.2052883902695568e-01  7.3110323249781298e-02  9.4017207159629274e-02  1.0223366431997453e-01  4.0666853929733676e-01  4.1685208026880777e-01  4.4954446345943688e-01  1.0584887105440986e-01  1.6307037418574277e-01  3.6231703958670508e-01  3.5258592741794764e-01  3.7546780613925357e-01  3.9656663825839550e-01  4.3224319819341905e-01  4.1232349061714196e-01  1.9751618534308749e-01  2.4191579080497949e-01  4.6347880651687706e-01  4.7628189829069906e-01  4.8660060472871552e-01  3.0129089267408116e-01  2.5474883856183578e-01  1.8492607756711266e-01  1.5435969130190250e-01  3.2103839312574439e-01  3.4632334996185404e-01  3.1762999171999001e-01  2.2646674678176335e-01  2.0243701908927525e-01  2.5564669173579463e-01  5.2073607633075780e-02  6.6212559220362260e-02  4.9621358069825772e-01  5.2087909058539639e-01  1.3609682856562672e-01  1.0808053580220264e-01  9.1321740780275593e-02  2.2001628831630704e-02  2.0574474797473277e-02  5.5094977463009243e-01  5.5749489678096564e-01  5.1807293059992054e-01  2.6750000031757065e-01  3.5113120553133831e-01  3.0675887561296405e-01  3.0657019612236369e-01  3.9972262671797443e-01  4.2832352631539961e-01  4.9823792182927934e-01  5.1476400867163652e-01  3.7338606761588117e-01  4.0157585075947411e-01  3.8328802372796916e-01  3.9265320586419866e-01  3.7136677682940555e-01  2.5145017217681720e-01  2.2807861715878164e-01  2.0379847964791351e-01  2.2675708635805716e-01  2.6460336867340084e-01  3.7002098749440177e-01  3.4934250656231780e-01  0.0000000000000000e+00  2.2681189471877757e-02  2.1786758258110047e-02  0.0000000000000000e+00  2.0137402590142191e-02  8.6981016986119319e-02  6.0538379222969362e-02  4.5301478161964844e-02  1.7147886598601803e-01  1.6466033866907395e-01  1.9746354987586728e-01  2.1479550336446332e-01  5.4123246222754454e-02  6.3480824301887034e-02  2.3536630235645944e-01  2.567198523