<?xml version="1.0"?>
<VTKFile type="UnstructuredGrid"  version="0.1"  >
<UnstructuredGrid>
<Piece  NumberOfPoints="1084" NumberOfCells="2042">
<Points>
<DataArray  type="Float64"  NumberOfComponents="3"  format="ascii">0.855514644808588 0.1284292535948348 0  0.8401757085691636 0.1679271747730996 0  0.8685129340651084 0.1562044951412642 0  0.2953999206664901 0.04026370973839133 0  0.2727107741580766 0.01031336678820788 0  0.3004070358461022 0.01290117244408536 0  0.4617886276769411 0.3353957442895661 0  0.4912817337304227 0.3727061397179142 0  0.4539709876153052 0.371887476088316 0  0.6201251410376256 0.09688459113817011 0  0.6434001565788463 0.05268175586883797 0  0.6090301150055984 0.05952666244658643 0  0.7522939267922419 -0.4004965413794968 0  0.7410711755224456 -0.3707162955646782 0  0.7692118971124989 -0.3688759676569528 0  0.4837222547114566 -0.1926490854371977 0  0.4404107886116583 -0.1817985809085617 0  0.4521001971762039 -0.2135861488778773 0  0.2318050003585312 -0.213983931316002 0  0.279870004255202 -0.2093774048708557 0  0.2531130340729764 -0.1832532667015915 0  0.6577307878643813 0.01859320948141046 0  0.6731683632256446 0.06173300968351035 0  0.4570919891687704 -0.7530397486460687 0  0.4834647135726919 -0.7163555249546549 0  0.4939499054031887 -0.751715398330822 0  0.5059612714748689 0.08938903128408915 0  0.4745336821831974 0.1055944983868761 0  0.4818436008576278 0.08119395861908205 0  0.8019718439111608 0.1285398753848373 0  0.828768626354068 0.1407698751999194 0  0.8067220340387148 0.1536036869636551 0  0.4816529363189698 -0.5359538809713272 0  0.4523462244666195 -0.5572691952876961 0  0.4775209246136201 -0.5610774755678507 0  0.663894096090064 0.2381656457450875 0  0.6583074584565023 0.2679951024258648 0  0.6898314402074481 0.2375971204039016 0  0.5840968071904051 0.6781291660011531 0  0.6081536160770576 0.6509575991874648 0  0.5645001116370951 0.6602149860435697 0  0.6302163977109844 -0.1384037938153676 0  0.6264742913672765 -0.1653262152652349 0  0.6571836951961331 -0.1409653464511229 0  0.6526673797513434 -0.1725886017542859 0  0.3207452767915521 -0.7743475972972779 0  0.3051159099885882 -0.74565385731203 0  0.281642659294784 -0.7869587443019139 0  0.4276326631853311 0.6998590113916514 0  0.4191852691759226 0.7336049125921794 0  0.4449124569695793 0.7221147922856616 0  0.6301972231455205 0.02624839768945893 0  0.5941437518154578 -0.7280398936550003 0  0.5583487284632143 -0.7159771428697908 0  0.6016735120122167 -0.6911967819646654 0  0.6928094442470396 0.1904974778732374 0  0.717589563559959 0.2070725087516031 0  0.6783517701685519 0.2143315618091625 0  0.2441736859806193 -0.013238280349902 0  0.2461856651365579 0.03610995718233868 0  0.4146008664590951 -0.4415804827735934 0  0.4058550639008564 -0.4770503152532232 0  0.4285933982095163 -0.4638437669233825 0  0.4877130603296085 -0.4830992039877709 0  0.5173710650302155 -0.4703644675802144 0  0.4832226915370715 -0.4541010388389044 0  0.753529457929813 0.2721455277143517 0  0.7346302836380226 0.3096966442310014 0  0.7632719411464213 0.3088750052106449 0  0.4826801558829261 0.5278655850029362 0  0.5163801363355287 0.5514905609086045 0  0.4896711031694089 0.5537415604987794 0  0.5333164770431995 -0.3553698665924153 0  0.5566194127645377 -0.3972810158513128 0  0.5074218841298895 -0.390129421105847 0  0.7633927378420774 -0.1714187069867768 0  0.775818430854639 -0.2079874905708813 0  0.7485205588418528 -0.1968675715456987 0  0.6567436512179938 -0.01837193016516887 0  0.6703694082604046 -0.05423337209811997 0  0.6823086839339092 -0.02917766442428712 0  0.7866092159292974 -0.08959516526956038 0  0.8267411211129154 -0.1073468612290715 0  0.7905527424518393 -0.1349195686897359 0  0.7018052076891695 -0.2646560196462904 0  0.6897452306892373 -0.2916040180581805 0  0.7201306804142041 -0.2877400974731488 0  0.8692218613448256 -0.2238553918305647 0  0.8322842055378167 -0.2359165218493522 0  0.8716333364862425 -0.2601179532538458 0  0.3770975254229973 0.2052786382865996 0  0.3462470755101406 0.1818445585451582 0  0.3883445771415037 0.1734676944461349 0  0.3990774181991369 0.6395744274345501 0  0.3893098346706337 0.5981339437685964 0  0.4338166442351258 0.6185165507063383 0  0.6279363620429745 -0.4565435787275231 0  0.6312840511604255 -0.4860490351929785 0  0.5996715865838221 -0.4604967465906787 0  0.6526083034174084 -0.4059154258837066 0  0.6197745815523182 -0.4212406070573856 0  0.6486815208598259 -0.4353274396169158 0  0.4649732065653127 0.644584090322598 0  0.4599964336777923 0.6814720875592684 0  0.4279777209540104 0.6627903347584941 0  0.2975684718453496 -0.8148220276284073 0  0.3179682113657381 0.263918242958 0  0.3628401903392844 0.2500335966355188 0  0.3530563289991845 0.2925471847247619 0  0.4232385316346942 0.8552292225523547 0  0.4569048097115439 0.858221905521001 0  0.4307446923074866 0.827091753929455 0  0.3439417099236332 -0.6121401089662168 0  0.3336331521217348 -0.6585880711314719 0  0.3139760020744123 -0.6324626775742214 0  0.2719355431455361 -0.330845579650162 0  0.3107513078508887 -0.3502396500625142 0  0.2992402364002463 -0.3247377452555354 0  0.7273890775054482 -0.452979262649708 0  0.7740427483845034 -0.4429675650790261 0  0.7468751089474893 -0.4300755894100581 0  0.8094614961641105 -0.4108191651756637 0  0.8477992092768174 -0.4083547801526269 0  0.8147339578252027 -0.4415671870382508 0  0.8922858534485971 0.3232125341049065 0  0.9044971171791155 0.3534240947485029 0  0.8629196718937504 0.3371044152463425 0  0.2407883623302344 -0.1479473392268321 0  0.2730272609728244 -0.156497438393835 0  0.3307913455705996 -0.32209112772894 0  0.766275469157831 0.3373705917986213 0  0.7270117214537798 0.3523913526578815 0  0.8319607513199512 0.3272605228421564 0  0.7989049251164099 0.3309304901182515 0  0.824837263545015 0.2977687172274117 0  0.249516574909788 0.1178078844211209 0  0.2716680139985999 0.1561236297338532 0  0.2469001150279252 0.1448816014928452 0  0.4612095051405225 0.2796267787367558 0  0.4399968457209265 0.2520938278100669 0  0.4320408894657748 0.279964208566487 0  0.3045634694125486 -0.06243381060209528 0  0.2942947845364635 -0.09362749621171698 0  0.3353695251572911 -0.07291031180159256 0  0.4856483370451747 -0.1033700494823073 0  0.5093748673045058 -0.08876042035668917 0  0.4999146978089363 -0.1259913802953386 0  0.4521025910604496 -0.05765972030898988 0  0.446660205837974 -0.09817789138252699 0  0.429913083215876 -0.07530382919885834 0  0.550527153827516 -0.2346250253440536 0  0.5261574413737675 -0.2679083337833422 0  0.5524186399467528 -0.2754608763866272 0  0.8131787875009359 -0.01927434390670453 0  0.8240159726573677 -0.06354884655944232 0  0.7910692363604553 -0.05611622361698246 0  0.7069393984352208 0.08539575425191143 0  0.7027708824288577 0.117088790284357 0  0.7398787353706419 0.1215224010900196 0  0.6210119602230632 0.3495795219907357 0  0.6330973247234325 0.3222513631541384 0  0.6006449749607594 0.3266654546086818 0  0.3205094818381062 0.2935230830304627 0  0.8692238381416554 -0.06937336933960382 0  0.8920901992014005 -0.03383852388756705 0  0.8528265591974253 -0.02551578573929181 0  0.313677012066451 0.4739757357189519 0  0.356933486269603 0.4532178779552468 0  0.3212332021116325 0.4421879101504542 0  0.7993845088512088 -0.3191032448008495 0  0.7981393611444598 -0.3656515995679219 0  0.8371820238843944 -0.3415922536812541 0  0.7572754232728257 -0.3433258676436134 0  0.4302969745649615 -0.2395035413732142 0  0.4759315572375045 -0.2376518511867936 0  0.4544063406789307 -0.2667901314395152 0  0.52632051276521 -0.1860379727460288 0  0.5127021816032775 -0.2231463284444579 0  0.5130774703705813 -0.7271685383126054 0  0.4981922147610836 -0.693527886028845 0  0.5955362440817511 -0.539296132230121 0  0.6269403852469492 -0.5154243913626334 0  0.5941310535234843 -0.5134743264378505 0  0.3715370558029863 -0.1276927708807367 0  0.350771913427069 -0.1691674218569566 0  0.3383247145665093 -0.1369998995062197 0  0.2571348934472276 -0.114848350484653 0  0.3245813686030676 -0.5090938006310397 0  0.2898101893773494 -0.5322742382375469 0  0.3097668948301008 -0.4870249702742697 0  0.436389274477459 -0.497106737241813 0  0.4182472220506184 -0.5230574098665104 0  0.6860123772503671 0.6015382248079207 0  0.6559578052262283 0.6098402848363254 0  0.6659102595680665 0.5774981687032396 0  0.5153107235880576 0.4679293864478142 0  0.4746392728257074 0.457645312765729 0  0.4876578830882682 0.4917250737488673 0  0.5381660976947072 0.3647208202273673 0  0.5305949181784023 0.3232975171575244 0  0.5550807010809974 0.3402256732513771 0  0.658480117055714 0.3380183588705503 0  0.2839087186237294 -0.3719978169189649 0  0.2838678752012256 -0.4022164590173402 0  0.2548745784299392 -0.3724504092108006 0  0.325728135299952 -0.3813786458865954 0  0.3484244504069957 -0.4080754036437784 0  0.354013158286477 -0.3803281064287605 0  0.4715292481904923 0.7313591138687013 0  0.5001911911600448 0.7534954224541985 0  0.4580711757577816 0.7571756731497552 0  0.6529518573269545 0.2028453820933581 0  0.6407642248551683 0.2259810857045496 0  0.4712310949182194 0.4158324750007106 0  0.5010709803688921 0.438678961626021 0  0.7775764120351573 0.4699429140366598 0  0.7381200155673009 0.4904481012096953 0  0.7693873032885354 0.5023992010519285 0  0.4909250896077311 0.3072056924027643 0  0.4630002285094164 0.3074956729722098 0  0.4220797114502626 0.1993743766825203 0  0.4527996090503869 0.1717119486727273 0  0.4493873393890447 0.1988113934912993 0  0.9447375387382059 0.1137033102122951 0  0.9433340449978349 0.1580653845752386 0  0.9647496713575022 0.1365396774390762 0  0.7550430303852204 0.2032040656165406 0  0.7275746345475357 0.1789818640606326 0  0.6866301107036872 0.2788962205154981 0  0.7195828011484168 0.2705957722737886 0  0.6425041534568772 -0.08060062161762281 0  0.6228846673142369 -0.04336766294357697 0  0.7087130943391372 -0.05544416125599747 0  0.5490320459835896 -0.149397767245787 0  0.5690588180890829 -0.1916731886489846 0  0.6158186668233055 -0.190331770691776 0
[...]
<PointData  Scalars="f_2500-2"> 
<DataArray  type="Float64"  Name="f_2500-2"  format="ascii">1.2261609777976956e-01  1.3054261719288279e-01  1.0592091165290690e-01  6.3971616279842136e-01  6.5477079467975086e-01  6.3719904529095139e-01  4.1496955076623326e-01  3.7007857034511682e-01  3.9941865449094421e-01  3.5923492960980818e-01  3.4161464115033474e-01  3.7480277527430556e-01  1.3517675441983820e-01  1.5815538606302595e-01  1.3398164088455253e-01  4.6223104903514600e-01  5.0237492663439665e-01  4.8122610902738905e-01  6.2833514697965764e-01  6.0486134519773604e-01  6.3009174404432755e-01  3.2906932372201886e-01  3.1082779804643135e-01  1.0745807525751748e-01  1.2340546368749868e-01  8.9621221192100378e-02  4.6855686463303997e-01  4.9372661511998994e-01  4.9122060510745735e-01  1.7423796071685532e-01  1.4636968536616077e-01  1.6536758086264619e-01  2.6603958118210691e-01  2.6906697508834970e-01  2.4972811803819042e-01  2.8140220724090492e-01  2.7591834985582758e-01  2.5705002220599410e-01  9.4024157874566985e-02  9.7790252485190049e-02  1.1929813399240601e-01  3.4158884287203589e-01  3.3909180025853569e-01  3.1475395033739512e-01  3.1182695285111306e-01  1.4893010409497542e-01  1.8076781719609800e-01  1.5117656859762524e-01  1.6634649243091312e-01  1.4219393405210215e-01  1.3901321895557953e-01  3.5585422725176624e-01  5.2222594299269814e-02  8.1617294640257729e-02  7.3729677166584531e-02  2.6814475112165431e-01  2.3952799162371341e-01  2.7527552678060857e-01  6.7084554046891509e-01  6.6838344462585897e-01  3.8094038571799904e-01  3.6037176947621369e-01  3.5529566040536120e-01  3.0024250248636569e-01  2.8769806940898168e-01  3.2375660383660093e-01  1.8526446092592341e-01  1.8940406129027701e-01  1.6313126166443026e-01  2.7152922528996881e-01  2.3088997622251692e-01  2.4720213534872310e-01  3.4623884066358057e-01  3.0326993132247104e-01  3.4673068295483206e-01  2.0396562046155078e-01  1.8312785589287603e-01  2.1249047314966549e-01  3.2991725151689977e-01  3.1445934166019818e-01  3.0384038829560972e-01  1.9449134053910921e-01  1.5332808377534135e-01  1.8457121250526926e-01  2.3636286883481433e-01  2.3745883529550654e-01  2.1092206420361292e-01  9.1634373642741643e-02  1.2265441784621410e-01  7.9899887625117891e-02  5.4275577096056615e-01  5.7372119129886523e-01  5.4592257792943322e-01  2.3246474445318624e-01  2.7313594456841211e-01  2.3108756692600874e-01  2.0982861095368704e-01  1.8965561244813689e-01  2.3042827765103713e-01  2.1799446159872107e-01  2.3716102080018375e-01  2.0516269579310611e-01  1.9156865535320142e-01  1.6462206472222546e-01  1.9739380572210680e-01  1.2018153092138502e-01  5.5599921892731052e-01  5.3352842036653825e-01  5.1796002776084671e-01  3.9454499343527370e-02  2.2828474656127355e-02  5.8587399208790310e-02  2.8458319355448941e-01  2.4824821681625031e-01  2.8082122318852393e-01  5.4378337816639877e-01  5.0941530518554912e-01  5.3218966440757487e-01  1.3048795939804606e-01  9.6961423857552839e-02  1.2559764229456846e-01  8.1695442952321812e-02  5.1327037838201910e-02  6.4299512549589002e-02  4.3859308493895625e-02  2.3576174893517803e-02  6.4186602768193254e-02  6.4920014335695364e-01  6.2860211247406861e-01  5.1533867119680465e-01  1.4951807846295490e-01  1.7855566499248460e-01  9.5055037858468250e-02  1.2288710349884366e-01  1.1120552945174704e-01  6.5307312999341394e-01  6.2957125845057527e-01  6.4666726392346152e-01  4.4492635231588401e-01  4.7468621419924628e-01  4.6746205472661928e-01  6.3136270467688338e-01  6.3250630187367241e-01  6.0892139982152260e-01  4.8427353262562201e-01  4.6565299967046780e-01  4.6673165260310828e-01  5.2041361494348859e-01  5.1894433302014986e-01  5.3658172867399812e-01  3.8815201375578001e-01  3.9580369723188230e-01  3.6951060334025937e-01  1.7303724774155763e-01  1.6057799363404562e-01  1.9332722890300499e-01  2.7467347155938288e-01  2.7419803907658402e-01  2.3665037471731007e-01  2.7397414948977589e-01  2.7625970551999834e-01  3.0314281231911527e-01  5.3813180998510457e-01  1.1598027191281959e-01  9.5997740170176010e-02  1.3404081849013708e-01  4.1726865165637961e-01  4.0910148645111638e-01  4.3807118229088876e-01  1.2682771632342466e-01  1.1020478910706734e-01  8.5384065211591240e-02  1.5540736516819292e-01  4.8803145644472340e-01  4.5172350840002129e-01  4.5633898581789506e-01  4.2697026769108876e-01  4.2616173875268687e-01  9.8703925534694384e-02  1.3333539883930814e-01  1.8289887835910973e-01  1.7496136599556861e-01  2.0115535265781767e-01  5.7221511482933984e-01  5.7496517385986978e-01  5.9332075129406925e-01  6.4940213183220508e-01  3.8285998924573528e-01  3.8068846414951579e-01  4.0862918612691379e-01  3.2553921145496767e-01  3.1727821619309510e-01  7.7487887995786417e-02  9.3382366506699552e-02  1.0668532912334122e-01  2.9079890721778340e-01  3.2761536272262537e-01  2.9436747866775093e-01  3.3684795612785795e-01  3.6557945364263977e-01  3.3584606096922159e-01  2.4636058602226441e-01  5.0979413231160542e-01  4.8819333887450728e-01  5.2404940793441712e-01  4.7989740256406238e-01  4.4752182754643616e-01  4.6292406864841834e-01  1.1775953004724332e-01  8.5123968134965700e-02  1.0329602825698364e-01  3.0317859046718620e-01  3.0734569614640861e-01  3.5849439065867833e-01  3.2089734786323587e-01  8.1140345513591824e-02  1.0223697544982464e-01  7.1456175167971384e-02  4.0690071368185360e-01  4.2883491487010056e-01  5.1094942134866994e-01  4.9538495278535671e-01  4.8872141222613891e-01  4.1427809424916404e-02  3.7287667670388269e-02  2.1165323965991134e-02  2.0447265611995000e-01  2.3710652852917752e-01  2.4542612748901979e-01  2.1763144824552597e-01  3.3928352414841911e-01  3.6261466819797866e-01  2.7583837792434879e-01  4.1665051285821997e-01  3.8626239724623279e-01  3.4236974980716239e-01  3.6932772737169545e-01  3.7915204590034585e-01  3.6714676367491428e-01  1.8951965268821772e-01  2.1143454365599443e-01  1.8247806590497573e-01  2.6848192666845089e-01  2.1334030229288251e-01  2.0122870637453660e-01  1.8583530712150909e-01  1.1008226065275568e-01  1.1414762181639582e-01  8.6056683887870383e-02  1.3955368374664628e-01  1.3467896626048714e-01  1.7451418760911580e-01  1.6967641270337741e-01  2.0002393415487765e-01  2.5243620461209415e-01  2.3869569712714203e-01  2.6457449224452262e-01  3.0417155208521512e-01  5.5202695378850863e-01  5.3398970256729272e-01  5.5862754852494123e-01  4.5155924905677536e-01  4.6110496060003026e-01  4.7367197170133973e-01  4.3388884172084341e-01  4.3182896529717407e-01  4.1002485532967459e-01  5.3045225225503778e-01  4.6270916374765075e-01  4.4457776100448199e-01  4.3916517763875984e-01  4.2548881623917623e-01  4.2249720999173296e-01  3.7703965840255138e-01  4.8889578185141047e-01  0.0000000000000000e+00  2.9361877399208525e-02  2.2122372769448010e-02  4.0463006663553003e-01  4.3508468593997696e-01  4.3491561677595392e-01  2.3410738008262305e-01  2.4798582318308668e-01  2.0277962381618095e-01  2.5496070453852859e-01  2.1836177153072983e-01  1.1664503917138890e-01  1.1986928550299779e-01  9.2888830949820630e-02  6.9185064684180869e-02  6.7028479498202675e-02  6.1523580544095491e-01  5.9747705536656670e-01  6.2093488293191901e-01  6.3839036792096948e-01  6.1948699641731786e-01  6.1740565291508320e-01  2.9684421593016141e-01  1.7640144359864357e-01  1.6810722802421554e-01  1.1182681137678871e-01  1.9700971071445361e-01  5.5806842470625478e-02  2.9470079483915917e-02  5.1804862821741814e-02  0.0000000000000000e+00  0.0000000000000000e+00  1.0482385453535986e-01  7.5875409254891987e-02  7.8929757308120616e-02  4.4507721156374974e-01  4.7752888198163701e-01  4.3524878800747674e-01  7.8042858692367365e-02  8.6643779241817931e-02  6.2257401497212927e-02  2.0135158780585077e-01  2.2260551639575873e-01  1.1444254632604881e-01  6.1870862642401347e-01  6.0413072042577431e-01  6.2524157058434837e-01  1.0479896802363393e-01  2.5075302496337837e-01  2.8369376934463203e-01  2.4896429064795339e-01  2.4736015582685653e-01  2.8474877284598166e-01  3.1934019335303587e-01  3.0329176791531609e-01  3.5347671151978366e-01  3.5531467847820747e-01  5.8598960355560048e-01  5.5947856006824803e-01  5.6685026341550471e-01  6.3126199860835031e-01  6.0549762643043092e-01  6.0622231530915638e-01  1.4251754969285352e-01  1.4800915271959866e-01  1.1580697062835285e-01  1.5564575269059774e-01  1.7735561216695178e-01  6.9154822230375446e-02  8.5540764985300485e-02  5.8750722283593917e-02  1.0289125966830751e-01  1.3017502213214951e-01  9.6822779551154273e-02  1.8838820193004030e-01  1.4738541116452977e-01  1.7450748342512129e-01  1.5330279427942134e-01  1.7232396794071697e-01  1.9033307393329876e-01  4.7178071816388856e-01  4.4509838213236819e-01  4.2937806422028574e-01  3.8760087094480034e-01  4.0246501812056101e-01  6.4507159050339768e-01  6.6098893800101022e-01  2.3991129655552051e-01  1.9869174930544409e-01  1.9225800560779827e-01  1.6017691556697658e-01  1.4421317559225566e-01  4.5820419129120188e-01  4.7057831173416925e-01  4.5233841185553969e-01  2.5337883415647705e-01  2.2746129810864313e-01  2.2385624336983256e-01  2.5022742361152445e-01  2.6946342704245996e-01  3.0471507333117237e-01  2.8213717068477423e-01  5.2826222395563137e-02  2.2733111897168638e-02  6.2266938454525501e-02  9.1953310509462302e-02  6.2769231758131455e-02  5.8987871791412634e-02  2.8346599574269819e-02  2.9480923824113520e-02  7.8412529677645393e-02  1.4456130087040286e-01  1.5805530547520608e-01  1.3244106007836529e-01  7.6867673253486229e-02  9.7412101658432518e-02  4.7680668576373805e-02  2.3837887515850066e-02  9.1662230176029272e-02  1.0708379071661753e-01  2.0007427885887075e-01  1.6410648993218024e-01  2.5736601953290367e-01  5.3943022495003941e-02  3.5039545233173951e-02  6.4248358238969433e-02  1.1485878498659685e-01  3.0651511968730821e-01  3.2434654933053669e-01  3.3428014144270057e-01  6.6268387508374632e-02  9.0754778594284949e-02  5.5359331824986466e-02  9.4867330625308818e-02  1.2906601781622820e-01  9.0595100046266003e-02  9.9665677177024556e-02  1.1417563509483265e-01  7.6187571220189709e-02  6.7281319329106581e-02  3.4268045728990754e-02  0.0000000000000000e+00  2.9604754183622264e-02  3.8132601767877521e-02  6.8995340844327582e-02  6.1719347842509230e-02  5.3027763707739789e-02  3.2556144850662418e-02  0.0000000000000000e+00  0.0000000000000000e+00  2.2802594823346956e-02  0.0000000000000000e+00  0.0000000000000000e+00  3.1341334885117429e-02  1.8242125724143878e-02  8.4785761880283486e-02  8.1978791765876607e-02  6.4256642488638799e-02  4.6710536371580923e-02  6.3102717221150739e-02  2.5025972642460335e-02  1.2256089283926697e-01  1.6405356716569042e-01  1.5752634141956748e-01  4.5296259615336093e-02  2.2738502527802525e-02  4.6848216864845804e-02  3.2032279365819738e-01  3.6053390028014509e-01  4.0345741782654448e-01  3.9590592431285954e-01  4.1703778066231351e-01  6.0222022293125077e-01  6.1071191812777215e-01  5.9547236751425570e-01  5.1100010731165579e-01  1.4735778602577115e-01  2.1748710766411014e-01  1.8675295718089430e-01  2.0721196269189895e-01  1.4234182068262266e-01  5.0970641936809051e-02  2.6704035038363421e-02  7.7523362669306276e-02  5.1581165891160179e-02  5.5558361740393837e-02  1.5876259179928057e-01  1.4830054169539283e-01  1.5355947137511064e-01  5.8584459545626200e-01  5.9045615057006462e-01  5.0104803798149600e-01  6.3276566990041680e-02  9.0504668546976405e-02  4.4714305216141899e-02  8.4569242626969798e-02  5.3152613921268785e-02  5.7068978224975109e-01  5.4590654818399997e-01  5.4850718223649508e-01  5.3538818116416365e-01  5.0481021177359042e-01  5.2603054706393537e-01  4.8322321621832193e-01  4.5215430322024963e-01  4.7259951844021147e-01  5.0028001112921339e-01  3.9180488692583421e-01  3.6126937048493762e-01  3.7735707415544018e-01  2.8131494283008418e-01  2.6201931012646607e-01  2.9112837503837524e-01  3.4783870039668113e-01  3.5508505235667298e-01  5.7472072285856968e-01  5.9169158364901098e-01  5.8013035764205445e-01  5.6364658733952777e-01  4.2412658328025160e-01  3.9861197023986056e-01  4.2810098841165539e-01  4.1482875097686889e-01  4.4647250854611609e-01  4.3091270361466244e-01  4.0615228550806021e-01  4.1611994412923953e-01  3.7406807309120060e-01  3.4224959675776834e-01  3.4865808645949148e-01  3.6689055352492872e-01  4.9396659892175465e-01  4.9466528058343495e-01  3.3353550047336589e-01  3.6060162292679054e-01  3.6664600914037226e-01  3.1371327969403029e-01  3.3862069385585492e-01  3.7716940490690470e-01  3.4530125136682432e-01  1.6716890060932649e-01  1.9406768370527006e-01  1.6038294383692006e-01  1.2204092530460671e-01  1.6069173241619134e-01  1.1809063913201183e-01  2.0471666764036814e-01  1.8637407476056350e-01  3.2527219908448292e-02  4.3224630270532423e-02  1.9807828129342869e-02  1.0879094331817234e-01  4.9885256664298205e-01  4.7249811721158669e-01  5.3909072355374499e-01  5.5054953822430042e-01  1.2040216343587032e-01  1.5000314224502923e-01  1.5818991882959249e-01  1.6451838889731396e-01  1.8081011654230497e-01  5.1746457785900746e-01  5.2170538899773877e-01  6.5401308527517887e-01  5.5555056872660746e-01  5.6241172940969775e-01  5.3167852500639667e-01  5.9110601744534141e-01  5.8558393881031789e-01  2.5500383150605105e-01  2.1898264432743914e-01  2.3829894096856438e-01  5.8134839420638955e-02  2.6326090547333068e-02  6.5796605593800725e-02  5.4025906854012229e-01  5.4976910209624652e-01  1.1450096862974349e-01  1.4734796653107310e-01  6.0915839205604949e-01  2.5073448303872159e-01  2.8215458741283672e-01  3.6398705151542843e-01  3.4840686498613954e-01  3.3486229438930243e-01  2.0857198988539555e-01  2.0473555182416520e-01  2.4377443582308628e-01  2.4276543711108928e-01  2.0067101345919616e-01  2.1956417981980217e-01  2.4532756972708561e-01  2.0946595201158211e-01  5.8113845946258691e-01  6.3066659026398042e-01  2.9408695871634588e-01  1.4087747848482030e-01  1.3314359423329028e-01  2.0172714389979515e-01  1.6765050311679694e-01  3.7213118041259409e-02  5.7461151323917332e-02  7.6513411727217914e-02  6.8363819726673603e-01  2.4783358318141838e-01  1.6897262483591477e-01  1.6917039362192063e-01  2.0903656531586151e-01  2.4136550182998287e-01  2.9348573202693590e-01  3.2736192199320502e-01  3.2752360448591950e-01  3.0407798429692584e-01  2.1157026214924068e-01  2.4369110999982685e-01  2.8741651268260726e-01  2.6836770865369536e-01  3.0618965010646065e-01  2.7720964748130450e-01  2.8088464319491963e-01  2.7585142102737498e-01  2.5630628725975213e-01  3.1783605523910324e-01  3.4392498899101320e-01  1.0084956480938174e-01  7.5429683531454461e-02  8.7196903783358315e-02  7.2876020845803038e-02  9.6130650684395885e-02  1.6250643075536836e-01  1.5047623948346253e-01  1.2667236247228281e-01  8.8768286718007738e-02  1.1729629842350636e-01  4.8830500382447455e-02  7.6321565804032723e-02  7.8323920134839090e-02  5.6753198181310062e-02  6.9998209280612414e-02  8.9857080196148215e-02  9.5915661714218600e-02  3.6188149732570113e-01  3.8450916847869077e-01  1.1632690915141539e-01  8.2341539126788044e-02  9.0422912769863750e-02  0.0000000000000000e+00  0.0000000000000000e+00  2.5423650752093362e-02  3.4445505894904227e-01  3.1958603682020459e-01  3.4836366323074769e-01  3.1209354640853493e-01  7.9932583150330694e-02  8.8966618481118906e-02  9.2471544871719186e-02  1.2016615531506238e-01  1.1919790441262156e-01  1.3795966351249844e-01  1.2194471100478649e-01  1.6604135659954752e-01  5.2979463103937474e-02  2.3471146553024427e-02  2.5270824210012519e-02  4.0882549481942404e-01  4.1487062033072941e-01  3.4481000070200102e-01  3.6446611556095365e-01  4.1455195082542647e-02  1.9853648997472304e-02  4.3629471539407938e-02  0.0000000000000000e+00  0.0000000000000000e+00  2.7120185057340047e-02  5.8148295879125338e-02  4.4537191769067003e-01  5.5255817808730667e-01  7.4150868933874459e-02  3.9235139640784522e-01  3.9280979785596604e-01  1.6941991015119348e-01  1.4326288563082590e-01  2.1886789764941525e-01  2.4595713808100367e-01  6.0846928699777547e-01  5.9056637972847958e-01  6.0867123823120217e-01  1.9774404673701985e-02  1.0651003299090051e-01  1.3827950335916284e-01  1.5412638392498446e-01  0.0000000000000000e+00  0.0000000000000000e+00  3.2744537308410940e-02  2.3234809626794365e-02  2.1321073096869017e-01  2.2499549960451382e-01  1.1621596468739710e-01  1.3382931543412013e-01  4.6115057670609350e-01  4.8962137885556056e-01  3.9239449672809812e-01  4.1958462775402705e-01  3.7911197810732233e-01  3.9438965762659678e-01  4.4656893263740349e-01  4.1546257311922902e-01  5.7288940959522872e-01  4.0603452087681909e-02  1.9177097962211419e-02  0.0000000000000000e+00  0.0000000000000000e+00  3.1424951986395742e-02  2.6163006699607916e-01  2.8880254415897666e-01  3.7442335303348166e-02  5.7250503968986663e-02  5.6034213738044861e-02  1.0161162577482136e-01  3.0630492346951599e-01  2.7534368530332209e-01  2.7922979476458820e-01  3.0815555006922435e-01  2.6586568742462974e-01  1.8162946262573001e-01  2.0305514652072737e-01  1.7720599985026514e-01  4.6062160049016443e-01  4.7962957579612758e-01  5.0176479143147446e-01  4.1628043560046557e-01  2.9578330443270584e-01  3.9183241171696909e-01  3.0535874997801071e-01  3.1488508794939202e-01  3.2602278860504075e-01  3.0040242878394979e-01  4.8126318055268330e-01  4.6087749230745978e-01  5.1479747057835978e-01  5.4356095372369650e-01  5.5638572953583543e-01  9.8603536175205120e-02  2.1983561357047687e-01  2.2619683359043807e-01  2.0451918821681392e-01  1.8540061855172735e-01  1.8594501835533497e-01  1.5313646111527413e-01  1.2758498432485241e-01  1.6094629978445060e-01  2.1468494847755600e-02  5.2635916888274382e-02  1.7365333403543701e-01  1.7618585656007538e-01  1.5349913259349379e-01  1.3744891639242576e-01  1.4935517868440276e-01  1.0210311073036436e-01  9.8582273886264823e-02  1.3778531161712229e-01  1.2567035744283045e-01  2.3351148242182077e-01  6.0372561467413077e-01  6.0344952730487389e-01  1.8366932344979308e-02  6.6667480526988465e-01  6.6775808746144294e-01  7.8169132499306404e-02  3.8120597204368128e-01  1.7255616765612172e-01  1.9855786277379311e-01  1.7772322798645090e-01  9.6389187115188291e-02  5.2252470012904700e-02  3.2348852929547861e-01  4.0392684870724682e-01  3.3339201077917541e-01  3.5161190722791652e-01  3.5930458826995426e-01  3.8457360922444650e-01  4.0250818957552775e-01  4.5380452904370444e-01  4.1847307488381452e-01  4.3721956215216939e-01  5.7478948266016661e-01  5.7432010503971687e-01  3.4262872075700374e-01  2.5604734847548311e-01  3.0064804040354548e-01  2.1974452399959060e-01  2.9603871744705335e-01  3.2594985839429452e-01  3.1105052307808700e-01  2.8549726360976085e-01  1.1152455331192368e-01  8.6415639898121052e-02  1.6611636389778761e-01  4.2698456145995978e-01  4.7534578101246039e-01  2.8925580789260087e-02  2.2500323199102543e-02  1.3763502394429289e-01  2.3244763506628283e-01  3.1040649788743169e-01  3.2744871094365052e-01  5.9956756681680579e-01  5.7818721716178745e-01  5.9959235095512653e-01  4.9435707328196971e-01  4.8280014324611720e-01  1.2711732471249440e-01  1.3438370775296285e-01  1.5204739370272333e-01  5.8672965286693766e-02  5.1258133729110500e-01  5.3403989253082684e-01  5.2190198251110675e-01  5.9021651580376189e-01  5.7058119206802616e-01  5.7078686831959158e-01  1.0952934483799949e-01  1.9283025484004498e-01  1.1051621392908449e-01  1.6245441174191935e-01  1.4159183145339987e-01  2.1204979651533253e-02  0.0000000000000000e+00  0.0000000000000000e+00  2.2675908123988223e-01  2.2800173522677677e-01  2.5706734712925067e-01  6.6494573651746647e-01  6.2981809758302765e-01  2.7582377710425215e-01  1.0566183151614772e-01  1.0243870482181802e-01  1.1123618318904845e-01  5.6375214037377142e-01  5.4227549978634138e-01  5.5787032747348952e-01  5.3703648331443954e-01  5.6744168017471541e-01  5.5737282659304854e-01  5.2736690535335762e-01  4.8207063429312663e-01  2.6866238963791611e-01  4.1895836698319283e-01  4.2503066887231167e-01  4.5428631517726574e-02  7.6232276597924281e-02  7.1757486277280264e-02  9.2133099677820907e-02  3.2406057166480942e-02  4.077746558