<?xml version="1.0"?>
<VTKFile type="UnstructuredGrid"  version="0.1"  >
<UnstructuredGrid>
<Piece  NumberOfPoints="1130" NumberOfCells="2134">
<Points>
<DataArray  type="Float64"  NumberOfComponents="3"  format="ascii">0.2924965119749844 0.5806454640576162 0  0.2931357425666441 0.6158095738938106 0  0.2722845889387188 0.5986007514407707 0  0.06245154218797691 0.7943760977968389 0  0.05544056292684415 0.8360220202702611 0  0.02724914271240671 0.7995232918838924 0  0.1335850646589621 0.7291917770211511 0  0.09257890860895016 0.7227107754768907 0  0.1207009360036598 0.6914172198262521 0  -0.1127572484929876 0.6217075882064447 0  -0.09059232536756107 0.6461457043336694 0  -0.08244382822329682 0.6193610233350183 0  -0.1373197942797624 0.4432044140746515 0  -0.1708498639144158 0.4258289329533242 0  -0.1683718478273803 0.4550768101836 0  -0.2097608088645187 0.2706029166526365 0  -0.2553472029916841 0.2715809926304027 0  -0.2391685209522224 0.2307322500123088 0  -0.2612214313441482 0.4860827085271667 0  -0.2999268493360679 0.4942668376827834 0  -0.2761784895078877 0.5087930656610014 0  -0.6336799748740927 0.5412138273049375 0  -0.6367242063828276 0.4943077948128051 0  -0.6623691907668592 0.5109580860210953 0  -0.8189328877697528 0.4225545775266913 0  -0.7732510673161435 0.420047019447516 0  -0.7972043328982701 0.4010362957246634 0  0.09400378958013947 0.2055695036858353 0  0.1290725919584871 0.2207698374846717 0  0.1219808629418566 0.1890773044854493 0  -0.4309945018733153 0.5062643786080123 0  -0.4382089257601645 0.5497266439837095 0  -0.4119159386366162 0.5339223899750409 0  -0.6227781113910986 0.4494196041151011 0  -0.6567942943576646 0.4640171858672734 0  -0.6481157979026415 0.4373082602627743 0  -0.4712405913227501 0.1677045787871355 0  -0.5101607540755746 0.1422745461243285 0  -0.4855314936343032 0.1275817475248843 0  0.2162525383925422 0.08615652924307352 0  0.2246786184519418 0.05722134459703598 0  0.1858331413839794 0.06712133478128747 0  -0.395297655555004 0.5597085933417444 0  -0.393845571583094 0.5930343773993745 0  -0.3703409314215836 0.5744126151601694 0  -0.1732844607114084 0.7831016787925337 0  -0.2042612800303741 0.7831655859422791 0  -0.1887231468431922 0.8072354228488953 0  -0.2401164734357646 0.7642938074902216 0  -0.2007050285273371 0.7523935126534872 0  -0.2268594363809904 0.7369868775014541 0  -0.1696450233376555 0.7253721306646218 0  -0.2085138894959716 0.7108694539094691 0  -0.4304447217574816 0.7500053130336214 0  -0.4315890123179937 0.7095731294438389 0  -0.4566159372858562 0.7305137127660739 0  0.2068741599965308 0.6805917788483005 0  0.2050805379439151 0.7234446339117643 0  0.2218709634298657 0.7011057471390761 0  0.2162993597616463 -0.05864296304509958 0  0.1750354584180112 -0.06241539112817548 0  0.193720732252597 -0.0392358669981461 0  -0.0230893327402 0.1929077709269967 0  0.004761282153553419 0.1841053551365959 0  -0.0294157900699326 0.1671086648702482 0  0.1565461142119031 0.6738661189577495 0  0.1462519036200293 0.703786842447927 0  0.1808354785713632 0.6837740099682186 0  0.003584375230144248 0.8973914042388084 0  0.004168520773651397 0.9265977742636927 0  -0.02260959360525044 0.8990907582775318 0  -0.5553672154460828 0.1314190645461342 0  -0.5235028484586995 0.1112039343107129 0  0.1603091172319885 0.1987437044449037 0  0.1587220491624921 0.2266983155339805 0  0.1814480564065501 0.2139661830238536 0  -0.1528819986293607 0.1263255869844637 0  -0.1492482924853433 0.1580573615581254 0  -0.121785890413324 0.1264951045251249 0  0.06840700246376145 0.1813414697793323 0  0.05901930246285114 0.213188864059535 0  -0.1752833856350064 0.2330884014058902 0  -0.1463494540489943 0.2498979671367919 0  -0.1597540380916604 0.2128762917837419 0  -0.2666080625010207 0.8166860089768937 0  -0.2708315979539392 0.7816567174515252 0  -0.3125666401907646 0.8078345074970555 0  -0.404120413395211 0.790596968601049 0  -0.3736980272227576 0.8094398659945521 0  -0.3782485212331815 0.783550436492126 0  -0.6302032721917927 0.1842725605598824 0  -0.6662816078013655 0.1849757094845715 0  -0.6278359119408464 0.1559995968664962 0  0.04697055465782802 0.07164191122244783 0  0.03568486653295815 0.02782254432188264 0  0.07147362760462897 0.03813006809902156 0  0.07629170137027992 0.001199503106725944 0  -0.08254551195616064 0.2442760807068146 0  -0.1256264531238477 0.2318577153827438 0  -0.1100359059370774 0.2587079641700211 0  -0.2057340115688616 0.336734776516796 0  -0.1583351405483 0.3413766438249081 0  -0.1746963906066072 0.2991947239182672 0  0.2069802702871247 0.2191319025157533 0  0.2277242868701167 0.1958518940723663 0  0.2327020808785168 0.2211695803373901 0  0.08377029897187802 0.3968728637950909 0  0.09430952409275566 0.3649796683197574 0  0.1096177565212272 0.4086602604886229 0  0.1993614565197579 0.6303751881642145 0  0.2183947193733605 0.602039791860232 0  0.2244999519515443 0.6267009039980487 0  0.2603645391142563 0.6285756014906578 0  0.09969329332901172 0.7636117992424346 0  0.1302396754667923 0.7597935550942527 0  0.3054091438189218 0.7866902927858057 0  0.3357122182608844 0.7742694490625159 0  0.3340932520791566 0.8018765332110196 0  -0.3419627731396465 0.7347283846920364 0  -0.3520950571293062 0.7809111428238701 0  -0.3692699615099612 0.7343393389683085 0  -0.5840098151137766 0.2990048577514015 0  -0.6080756186142645 0.3165493008588801 0  -0.5823578507234605 0.3265486810853542 0  -0.7051763504253612 0.250234969313039 0  -0.7068111699962591 0.2244295694172429 0  -0.7307168990284388 0.2554584211146595 0  -0.4836131513794496 0.6232288808042636 0  -0.4928484342320275 0.5960519446409566 0  -0.5117044153203884 0.6291244044274967 0  -0.4409287066533773 0.6702178123895151 0  -0.4738508613963038 0.6572424830600011 0  -0.4501566366006438 0.6453775654719015 0  -0.3429952027518596 0.5223588630033167 0  -0.3206329923626178 0.5503883121993246 0  -0.3685624877363587 0.5418514467512064 0  -0.3893699539648601 0.6237039937970631 0  -0.3422033714709892 0.6265868844716567 0  -0.3644188643635339 0.6027670761648919 0  -0.6575050454237221 0.2288298014079799 0  -0.6447641122924658 0.2516770218638512 0  -0.6798884378325298 0.2427667040117376 0  0.2579067442312717 0.4688983724209494 0  0.2888513267043814 0.4378317642069166 0  0.2515399520834085 0.4316117661101545 0  0.2722069355506832 0.8284688529037881 0  0.2642325312678823 0.8678131532115284 0  0.2341417510346148 0.8335977078735048 0  -0.609195381974423 0.1346104521165029 0  -0.581512774190834 0.1459772283855625 0  -0.606311706240823 0.1720374621998764 0  -0.1137242964947925 0.7342494510189826 0  -0.1085533329295061 0.7711569775053645 0  -0.08842803878944591 0.7495212997310273 0  -0.09035277733789798 0.4919220888235711 0  -0.1387502465387686 0.4915819350525998 0  -0.1147755671194965 0.5236308404416747 0  -0.08799438577573623 0.3012994251470535 0  -0.08054411621706016 0.273239330540436 0  -0.06068658392917529 0.3120024979569823 0  -2.220446049250313e-16 0 0  0.03833101908736652 -0.01236714587332863 0  0.03332211297248573 0.1779883120077971 0  0.0553878700818049 0.1568128372514456 0  0.03879512812050209 0.1013532927181565 0  0.01956592186948998 0.06947958240077355 0  -0.3110288607107251 0.08135098352660518 0  -0.344921080983376 0.08229130413897219 0  -0.328161300472874 0.05287969798319995 0  -0.08860505921103043 0.5920506521433744 0  -0.1159536089414161 0.590966322597226 0  -0.1021964897951705 0.6788144063269812 0  -0.136261090104428 0.700646753224388 0  -0.1228430025016362 0.6531026549154566 0  0.1415956346790651 0.6023153900601184 0  0.1455023681906896 0.561880690090387 0  0.173814985803951 0.5850222891851874 0  -0.7039359164953137 0.1054244296900993 0  -0.7241549932545398 0.08547378493790607 0  -0.7240317325936491 0.1290401816176439 0  -0.7146836516968359 0.3927695373773623 0  -0.7171931948150422 0.4336007787289713 0  -0.7460250674529035 0.4301448157942048 0  -0.8336681057691238 0.345316635927459 0  -0.8219806880639507 0.3831114868492926 0  -0.8020922577552831 0.3633132148152522 0  -0.5618738577248394 0.6403651441164777 0  -0.5473882199946626 0.6849348980099506 0  -0.538289355892541 0.6573388026093229 0  -0.4824797505496254 0.3838810792864338 0  -0.5230731684421793 0.3642691414098798 0  -0.5137211790366101 0.3967288418064787 0  -0.09386743165719327 0.8868230745198202 0  -0.1334231263863611 0.8942731301668522 0  -0.1092845443900445 0.9137012029455377 0  -0.04523581318749946 0.8244439404340452 0  -0.0769396102945519 0.7908921470434424 0  -0.09343945562699482 0.8132315912754917 0  0.0455101775939576 -0.1178143478783519 0  0.07525030372245567 -0.08800061275601394 0  0.04261815316074052 -0.08518924674757319 0  0.1424349288786705 -0.03683910833544325 0  0.1406428911848698 -0.004598908502305238 0  0.1639118323293636 -0.01947543299796284 0  0.1859045193885197 -0.1024004418516471 0  0.19058579448583 -0.1427680390589207 0  0.216883382856332 -0.1337619999027692 0  -0.2373028979847076 0.5473261424768866 0  -0.1932653732436898 0.5665479687088435 0  -0.2062682446319116 0.5362814988625322 0  -0.2126522817199431 0.3845511360064228 0  -0.1866730065200072 0.3639012639806355 0  -0.4174180203574351 0.2086894809925613 0  -0.4048848604657676 0.1820574049833631 0  -0.4464806129667586 0.1834083348043779 0  -0.4568841982408385 0.1262359142486632 0  -0.4313452580001016 0.1582968730533858 0  0.07231769945658416 0.5196157514494713 0  0.03312463406788048 0.5008840041940618 0  0.06513249352082014 0.4842812410161731 0  -0.0004027730160685861 0.7771386075583826 0  -0.03905074592193825 0.7819032022368267 0  -0.02332525375120641 0.8059095547793576 0  -0.2649860329145938 0.1824261056420857 0  -0.3041191825682435 0.1773695031720618 0  -0.2803378790137869 0.1428742985583878 0  -0.2687508696165652 0.1158982906339185 0  -0.2514827659916298 0.1482915158136655 0  -0.322899042696953 0.1999682459755028 0  -0.3484887776281561 0.1655499381999704 0  -0.3515501295523116 0.2070651371825604 0  -0.3903979979922381 0.1564355708354559 0  -0.9163492829346521 0.2448659195690242 0  -0.9192152205576599 0.2847796305242293 0  
[...]
<PointData  Scalars="f_2282-2"> 
<DataArray  type="Float64"  Name="f_2282-2"  format="ascii">2.6883441132647090e-01  2.4329162334730006e-01  2.6275312975572090e-01  1.5100631500003803e-01  1.1848994308644650e-01  1.4817904155586276e-01  1.9526944129374044e-01  2.0567715820057766e-01  2.2726974102479147e-01  2.8357713716486505e-01  2.6693180220003609e-01  2.8907554132589364e-01  4.1153053195745609e-01  4.1520355025233363e-01  3.9606958243029766e-01  4.9018882591839474e-01  4.7213943624219551e-01  4.9579237320562292e-01  3.4633184940060235e-01  3.2612733241169334e-01  3.2545594319775228e-01  1.2203718265601557e-01  1.4371812133738562e-01  1.1951903685064433e-01  5.4892502500737919e-02  8.5836326989893491e-02  7.6825214331811900e-02  5.4751495900329239e-01  5.3479852672439077e-01  5.4791498964802254e-01  2.5704025145646847e-01  2.2626041309411504e-01  2.4935375723615485e-01  1.7368455742647654e-01  1.4502444426854749e-01  1.6299044835564527e-01  3.8529582131675549e-01  3.6355448094005283e-01  3.8385338825633447e-01  5.4479789951216218e-01  5.4533093768785001e-01  5.5816536549122675e-01  2.4067321022860610e-01  2.1899745858590830e-01  2.4188582022826013e-01  1.4658207880092872e-01  1.4101937357893840e-01  1.2545179462421252e-01  1.4762416209333301e-01  1.6509923528223605e-01  1.7151623727630358e-01  1.9250187706799651e-01  1.9578017598797853e-01  9.7700561638529373e-02  1.2422357922419559e-01  1.0015018794402941e-01  2.1947348769398348e-01  1.8661265188958107e-01  2.0027656808260771e-01  5.4828462120784294e-01  5.6291939248023792e-01  5.5819118028866177e-01  5.5957890169742808e-01  5.6339969410416180e-01  5.6757406426390367e-01  2.3526167796274758e-01  2.1340662267858634e-01  2.2277708119324957e-01  7.2864943288127884e-02  5.1212572190077299e-02  7.1018752750114517e-02  3.3176996895095001e-01  3.5909340776450349e-01  5.3514157521431149e-01  5.2462342416195995e-01  5.2279316652156294e-01  5.5829176221445409e-01  5.5105495144724115e-01  5.6581530886367926e-01  5.6004822911424834e-01  5.4948056496379583e-01  5.1762972089427683e-01  5.1834886955605786e-01  5.2992945399190372e-01  1.0211073932391720e-01  1.2683639440277855e-01  9.6594129609776078e-02  8.0088796004381554e-02  7.7380037453639874e-02  9.3438411843016669e-02  2.6392635750247451e-01  2.3534623568981247e-01  2.7150593884758639e-01  5.8793336127317686e-01  5.9306984065193824e-01  5.8844650693348144e-01  5.8954309142388095e-01  5.3369345229269982e-01  5.3142600296107967e-01  5.2256466468444074e-01  4.5832276732767718e-01  4.6991977493493831e-01  4.8783901740883745e-01  5.1246292472337307e-01  5.1290112028444756e-01  5.0189076886224748e-01  4.5097055110564627e-01  4.6952209846639609e-01  4.3941789446465790e-01  2.5996268045158027e-01  2.7667004477191759e-01  2.5631534203686490e-01  2.4450071927549766e-01  1.7220111017989573e-01  1.7172303343034523e-01  1.1372752062241435e-01  1.1392599089336847e-01  9.4761777935135280e-02  1.4023594047492904e-01  1.0395303606389571e-01  1.3093703716228422e-01  2.6410181764933638e-01  2.4033864299796692e-01  2.5468639804079257e-01  1.8987046668596078e-01  1.9516224217786321e-01  1.6887642388812957e-01  1.5722930725832521e-01  1.6938401378604243e-01  1.3956337664060472e-01  1.4662660402871019e-01  1.4020029975051493e-01  1.5883373610222942e-01  2.8898581500144127e-01  2.7958411588859217e-01  2.6477839834844202e-01  2.0030191605625661e-01  2.1740793434895656e-01  2.2518442476135156e-01  2.3200935448623045e-01  2.3489290586418676e-01  2.1059695715248281e-01  3.5918674068552642e-01  3.6729430616921732e-01  3.8583384883982408e-01  9.2053281812728330e-02  6.5525743947673534e-02  9.6800400816038343e-02  2.9011316646764324e-01  3.0931967346653555e-01  2.8440881184638733e-01  1.9408381667999813e-01  1.6530806048877758e-01  1.8434506187376820e-01  3.8534094229683025e-01  3.7762187995660484e-01  3.5849655344397158e-01  5.0588021476779310e-01  5.2103431768437614e-01  5.0357756413973132e-01  5.9484898862536750e-01  5.9323662157223256e-01  5.6412153781311691e-01  5.6868184396370480e-01  5.8351234342808023e-01  5.8983971443467831e-01  5.0188414157174177e-01  4.8282002264173129e-01  4.9558341077960727e-01  3.0992809394000659e-01  3.0690695526018996e-01  2.3965799439684446e-01  2.1753419046116104e-01  2.5725163487968034e-01  2.9396642597728567e-01  3.2427115640655724e-01  3.0063732678327970e-01  2.1936538148255560e-01  2.0486519263869046e-01  2.0016428474552336e-01  1.3590976941111224e-01  1.1829456315962307e-01  1.0047801482915809e-01  6.9234366020644825e-02  6.5396681423223427e-02  8.5730334514654491e-02  1.0763606686283966e-01  8.8536416174645000e-02  1.0938633253207175e-01  2.9574169134417355e-01  2.7923130940838248e-01  2.6965743588905527e-01  7.7314262726844857e-02  6.7693227961413666e-02  5.5633156659119269e-02  1.2834441663389284e-01  1.5261578095714953e-01  1.3366447171130694e-01  5.7992493973603698e-01  5.8211894977057865e-01  5.8622382242108728e-01  5.7451482943609800e-01  5.7600038499144279e-01  5.6918117232525467e-01  5.5302399590309359e-01  5.4285524627607573e-01  5.3512995896247184e-01  3.1143371499608091e-01  3.1008782638735588e-01  3.2882306375162057e-01  4.2853921212890878e-01  4.4883242897976788e-01  4.0958280024000010e-01  4.2538087635114641e-01  3.9798510346573079e-01  4.0447259400032842e-01  4.1471023719854055e-01  3.6717025927259267e-01  3.8403101953052293e-01  3.9374929908545631e-01  1.6679851224656114e-01  1.6181549335257830e-01  1.4321190605779191e-01  5.0175178693498590e-01  4.8451592509422847e-01  5.0534121088994055e-01  5.1711909398723910e-01  5.1742868222423888e-01  4.6755380702958832e-01  4.6377469625911599e-01  4.4971238420778187e-01  4.4123991065855361e-01  3.5082218589728896e-02  2.5130028335641652e-02  4.3714306857435471e-02  3.3442513811555280e-01  3.1986393393754498e-01  3.0210491757045554e-01  2.5782197044869709e-01  2.3434784966486735e-01  3.8438405264005084e-02  4.5212977887066526e-02  6.1449283275521224e-02  2.1954764946491800e-01  2.4996952775451667e-01  2.3351842581496199e-01  1.6268159419146941e-01  1.8757458516212230e-01  1.5698994793217871e-01  7.4861856685307551e-02  4.8488514465743350e-02  5.2870818985878608e-02  5.4633540723910981e-02  7.6577569083027236e-02  5.4789191727135401e-02  3.6244064145536536e-01  3.5868558280254509e-01  3.8420917086950906e-01  4.7931270874827220e-01  3.1720522995285078e-01  3.1094320943463671e-01  2.9411696964232403e-01  3.6977008906771325e-01  4.0374657544721981e-01  3.6878774602082248e-01  1.1272175880928814e-01  1.0245466270744411e-01  1.7237811777495571e-01  1.9483782143567091e-01  9.4228110831848830e-02  7.7666012801029902e-02  9.7985815648386071e-02  3.9710672184701129e-01  4.0978075948488280e-01  4.1778723668965978e-01  2.3949199634746057e-01  2.4690512978761814e-01  2.2531230138247854e-01  5.7280966150462165e-01  5.8462672809849547e-01  5.7934886029615951e-01  1.1048427752012907e-01  1.2369262764709732e-01  1.3038754390691240e-01  0.0000000000000000e+00  0.0000000000000000e+00  4.9088105549562916e-01  5.0652461252665282e-01  5.0162028546392190e-01  5.7326031671095512e-01  5.1533777697939653e-01  5.0207224424291275e-01  5.2345669281336449e-01  4.4029085052691158e-01  4.3972474002297629e-01  4.5708301426240094e-01  2.6351527123355561e-01  2.8191155229119846e-01  2.4827671848191754e-01  2.8650542706493715e-01  2.0897518512340990e-01  1.8452984764619920e-01  1.9862196713722027e-01  2.5669481629178875e-01  2.2314906977146526e-01  2.4411665017970038e-01  3.3373503357037848e-01  3.1418135261003211e-01  3.3565002881029615e-01  0.0000000000000000e+00  1.5525521477295818e-02  1.7162082671922613e-02  3.7193995872048191e-02  2.3808294867926703e-02  4.5796805887189623e-02  2.5250444649562087e-01  2.3036847720621523e-01  2.1400670747197323e-01  1.2628403356301290e-01  1.0874680519828225e-01  1.5521090276503730e-01  1.4956149547679132e-01  5.1915163853155377e-01  5.0868276279002866e-01  4.7503489083456146e-01  4.5777596532606596e-01  4.6527902288230294e-01  4.7302223979471042e-01  3.0389385165141830e-01  2.8004980628420756e-01  2.9217200786236586e-01  7.1538657073556555e-02  7.2097966236474784e-02  4.8545697823976719e-02  7.4898577951125020e-02  5.8957928302889051e-01  5.9055430171907553e-01  5.9341856317843711e-01  5.9344037450525244e-01  2.2401958609372072e-01  2.4349143918448798e-01  2.3495686657394976e-01  4.1428743781403682e-01  3.9591400775894697e-01  4.2673114665337958e-01  5.0029282642297868e-01  5.1891588198666450e-01  4.4638310047275487e-01  4.4569365425975149e-01  4.6801135019296153e-01  1.7990863341462329e-01  1.0981239671356864e-01  1.3567732526358228e-01  1.5485802021470504e-01  1.5495646102444774e-01  9.9887867653844414e-02  3.0574483861944712e-01  3.1098045295945170e-01  2.8560588060995845e-01  1.8636158491871374e-01  2.0981651165079321e-01  1.9292127048085336e-01  1.8123300649604868e-01  1.8342059125844273e-01  5.1182518066953464e-01  5.6927551909248209e-01  5.7079471980484286e-01  5.7583035440929142e-01  1.9565025812740139e-01  2.1896642064873470e-01  2.2926844294822388e-01  1.4572453453724096e-01  1.7979107503596078e-01  1.6234966683114702e-01  2.9681257013762216e-02  1.6092524835926627e-02  5.7323196112372155e-01  5.8322229609794607e-01  5.8412472804709537e-01  5.4143267795714056e-01  5.5910265731353204e-01  4.9032368191356140e-01  4.7770165166458550e-01  5.1894395571427709e-01  5.3625185232919093e-01  5.2453251588094252e-01  5.2905136454356916e-01  5.3656897405117299e-01  5.4837873243516200e-01  2.3930084698152970e-01  2.3946089713163393e-01  2.1249133417915947e-01  5.7964091018547270e-01  5.7677642478771063e-01  5.8416139440570169e-01  2.6252326448908275e-01  2.6428173422233742e-01  2.4018592859984039e-01  5.0436680324683880e-01  4.9674758760766130e-01  3.0882978579952869e-01  2.8337996842193885e-01  3.0490827086554312e-01  3.2973658749419466e-01  3.8165899011698723e-01  3.9140391740419939e-01  3.7659120422149300e-01  3.9754774244369118e-01  3.8989477500070974e-01  3.7492047111978322e-01  3.6011855786967012e-01  3.8129259644448116e-01  4.0799442803523622e-01  3.8144694913404475e-01  3.3809321081620819e-01  3.3693807089093480e-01  4.0262011160790967e-01  4.3250441868117406e-01  3.0384859235069978e-01  3.0003911499655650e-01  3.4340023485947346e-01  3.6319373331532734e-01  1.3094952125469783e-01  1.5936956484199491e-01  1.5003796079592110e-01  2.3661855271537294e-01  6.6453204628698526e-02  7.1145447121656519e-02  5.1535004257977329e-02  5.9057057181457130e-02  8.5710787739738711e-02  6.6265989435460179e-02  4.9260005659102396e-01  1.3602243780964993e-01  2.6028891601277165e-01  5.7695998859611941e-01  5.6778555782821460e-01  5.8597131713720685e-01  3.0442398068683396e-01  2.8182460637339574e-01  3.0854486435230488e-01  3.3175623336280291e-01  4.8081001339335738e-02  5.9499660766824697e-02  7.5052629886537908e-02  4.9283063720929005e-01  4.8354493988748276e-01  4.2560924907411252e-01  4.3146862524630814e-01  3.4727011761218263e-01  2.0469608357766864e-01  1.9197312281840845e-01  2.2596217264762541e-01  2.8158992076731046e-02  1.3723288048285985e-02  4.1592927845902170e-02  1.2408177849751904e-01  0.0000000000000000e+00  1.9024014570740457e-02  0.0000000000000000e+00  1.0296560346807718e-01  8.4951242737828808e-02  8.2471613674494612e-02  4.4218626293237800e-01  4.2908269426721740e-01  4.6281744299442268e-01  4.4069333424386697e-01  4.6624499209476106e-01  3.1375238681781858e-01  3.4208955066965380e-01  3.3057000415687837e-01  3.5755887953248439e-01  4.4556658239596453e-01  4.6623506390273661e-01  4.4857758634116929e-01  4.3310682520174321e-01  4.1759276439539300e-01  4.3603040579608021e-01  1.4995607919265289e-01  1.7013574217050745e-01  1.4969148300215573e-01  5.3158085194607442e-02  4.4969433701777792e-02  3.2313547288013583e-02  0.0000000000000000e+00  0.0000000000000000e+00  3.6577859593570516e-02  2.0530781996850999e-02  9.0677690783639783e-02  9.2846377388438608e-02  5.2065114628327781e-02  4.8635522611282948e-02  2.3865609723064649e-02  0.0000000000000000e+00  0.0000000000000000e+00  2.4311766266937526e-01  2.4425902491043133e-01  2.2273477169205569e-01  5.7263338841182154e-01  5.7996920979380695e-01  5.5971833049482822e-01  5.6782450999215872e-01  5.5908598161910772e-01  3.5341906466567163e-01  3.7153411777675222e-01  3.7590683881076253e-01  4.2662646687306910e-01  4.4050656257924964e-01  2.0632332171680789e-01  2.2613198656185765e-01  1.4742516365355188e-01  1.4375876403135016e-01  1.2118430308454774e-01  2.9784350088541900e-01  2.7836273377261467e-01  3.2842756577205506e-01  4.4883639843563028e-01  4.6313760164829182e-01  4.3587188466793908e-01  2.6043574322708757e-01  2.2179056979991987e-01  1.8787646686792100e-01  2.1589307833850047e-01  2.4396003110683914e-01  2.6557537627522443e-01  2.4551404594286558e-01  1.3052625828724188e-01  1.0766173916287988e-01  9.3850995310780283e-02  5.9214894821965203e-01  5.9347556638424770e-01  5.9024242465046417e-01  5.8951937946573452e-01  5.9163170911061824e-01  9.6817652951493957e-02  7.3581783260261505e-02  5.9070247211455407e-01  5.8775004311749401e-01  5.7129015372494918e-01  5.6458055963121223e-01  5.6276903866414074e-01  1.0231230788747309e-01  1.3047648978399559e-01  1.7123862061244244e-01  1.4649801882752750e-01  1.7247827830633447e-01  2.9982256140513069e-02  2.7779561750328721e-02  1.3584925164006492e-02  4.1926931575708576e-01  3.9349279514797253e-01  3.7784343464775633e-01  3.7287798217467572e-01  9.3844868118721572e-02  7.8233627353429508e-02  2.5394644292874691e-02  5.3067205152842203e-02  3.1686903202883193e-01  2.8286201426318758e-01  2.5637579609049355e-01  6.3817648037078387e-02  8.8937871228433649e-02  8.7190842196585752e-02  7.0277079703626205e-02  5.9407377754923607e-02  1.0508329265800143e-01  1.2707133278222715e-01  1.4094049116123950e-01  3.8452044269735551e-02  2.3494953576497470e-02  2.0073802525949969e-02  5.0872041741179271e-02  5.8372227052337111e-01  7.0808674435541147e-02  5.1716737673753517e-02  5.0157894174898902e-02  9.5103165769650569e-02  8.7367905342807931e-02  5.0410124007267154e-01  3.8131325089034823e-01  3.6020505001558573e-01  3.6166111140717966e-01  3.3231347763031210e-01  3.7076887025771560e-01  4.0095648055985994e-01  4.2404431399514331e-01  3.3490144259694314e-02  3.0285492251400464e-02  5.0998984936383607e-01  5.2662875127291620e-01  5.1253054548817112e-01  3.3089834875325064e-01  3.8570951846141932e-01  3.6361465567340423e-01  1.7246918658923943e-01  5.6637186186516131e-01  4.5675130219732962e-01  4.8277118955780518e-01  5.3508322113399120e-01  5.5422256628422206e-01  5.4521327080642212e-01  5.3654507876246771e-01  2.1678293610972643e-01  1.8333743546082251e-01  1.9856485280329197e-01  2.1353078767390418e-01  3.0924157673691866e-01  2.8660937176451767e-01  3.4643033014640517e-01  3.6139132381099681e-01  2.1629736396174687e-01  2.8944781107239748e-01  3.6923985560323769e-01  3.8900779924993956e-01  3.4281279593537728e-01  3.3536205195859736e-01  5.4960177671415078e-01  5.5862018696327054e-01  5.5560564259323808e-01  5.5785211601517737e-01  1.2795879173096966e-01  1.7470441123790881e-01  1.8110999146195170e-01  1.5148226448467578e-01  2.0413729786010880e-02  1.4428117141483024e-01  1.1832734814634485e-01  9.9905622187168933e-02  1.1158685337922869e-01  5.6853960571544493e-01  3.6126538445660925e-02  4.8002953603674431e-02  1.7263588482055087e-02  3.8831771615926891e-01  3.6241023764001790e-01  3.8754151765714051e-01  4.0064858387943020e-01  4.0805379294336630e-01  5.9295521342715718e-01  5.8717875738556791e-01  5.4611746275724005e-01  5.3875200523536326e-01  5.5029615102884288e-01  5.5963127902100840e-01  5.4500626808180230e-01  5.4784052547657247e-01  3.4813563204865561e-01  3.5054421733438434e-01  3.0638745096649594e-01  2.0035049396747132e-01  1.9052452313278184e-01  2.0829712733673236e-01  3.2769607492913055e-01  3.1966461685086045e-01  3.4228953604766027e-01  3.3905119018266677e-01  3.1683646262685378e-01  5.5772723651350664e-01  5.0941172231127840e-01  5.2871758705227234e-01  5.1635479402291262e-01  5.0875789081722800e-01  9.2850556137379497e-02  7.1832396695664560e-02  9.6655466204630280e-02  4.2371148673176268e-01  4.0559115977504223e-01  4.0494991779413536e-01  4.9404755729710087e-01  4.4850653005495106e-01  5.8740353745553009e-01  5.5771763319734480e-01  5.6032994104740730e-01  4.2721469596286438e-01  4.0745223596789559e-01  3.8556498164100866e-01  1.8906613301479544e-01  1.4652216430237650e-01  1.0012060831770510e-01  1.2244536269889453e-01  1.1597695453367271e-01  1.0333222237838133e-01  0.0000000000000000e+00  1.6279883654403946e-02  3.7000556358315714e-02  4.0689875894046096e-01  3.8488544721357104e-01  3.9605730626284108e-01  1.1527175264940796e-01  1.6735830261591861e-01  2.0147355223264565e-01  4.6473906757194633e-01  4.3981935043243287e-01  4.5351945450354780e-01  4.4249603961045003e-01  4.2197816173304786e-01  4.2420242872290775e-01  4.0051818975290004e-01  3.3426599365342230e-02  4.6135842705343905e-02  8.9706432073080239e-02  1.6379655946476770e-01  1.7347518257312802e-01  1.9193258787313044e-01  1.9103571187256160e-01  5.4444953873118795e-01  5.5139154630543374e-01  5.3973240614026552e-01  4.8475790112031031e-01  5.2406186101352684e-02  5.7368290229533755e-02  5.8517554639783850e-02  7.9508653201571841e-02  3.1418513582994595e-01  7.4962133066457076e-02  5.8976724576048502e-02  5.3941984899146526e-02  7.4855065228808332e-02  0.0000000000000000e+00  1.4781529319175405e-02  1.8048092623044170e-02  3.5205165916617742e-01  4.0255472550182858e-01  4.2373297011782024e-01  1.9302044995917370e-01  2.3389281006747772e-01  2.0299663410482691e-01  2.6269396284169660e-01  2.4007964779544111e-01  4.7123165391278665e-01  4.8362871177386024e-01  1.8292373228567493e-01  2.3964939249229175e-01  1.4572644780642122e-01  1.6895730975436815e-01  2.3610002124770663e-01  2.4261833344172826e-01  1.2067278193039997e-01  3.2963408364122961e-02  2.8559935191297039e-02  5.7323781254495276e-01  5.8729403022282201e-01  2.7413590207382760e-01  2.9493016299353242e-01  2.7462264230758521e-01  2.5157558623331688e-01  2.3547293160678309e-01  2.8297888180783597e-02  3.1765134712626569e-02  2.3118831054899428e-02  6.1917633058340811e-02  5.7455018899090583e-02  1.1923176352942279e-01  1.4031999693057556e-01  5.6741027793190824e-01  5.7878954011452144e-01  5.6369425265634276e-01  5.8064643173641106e-01  5.7169942995859879e-01  5.7954928424249230e-01  5.7663936505113955e-01  2.5086681495940016e-01  2.7820965809922671e-01  1.1613394886357507e-01  9.7314092745662356e-02  1.0959370915119532e-01  3.5723418660287894e-02  1.6084366406874696e-02  1.9436586986357099e-02  3.4227552783421877e-01  3.6147699295431646e-01  4.0627755806045146e-01  4.8183339174466305e-01  4.8247015947015637e-01  4.6436977607311092e-01  1.8121518543567838e-01  1.9004498518409632e-01  2.0261386207192081e-01  6.1658897941508341e-02  0.0000000000000000e+00  0.0000000000000000e+00  2.5383031630951559e-02  2.0266004029904035e-02  4.2037846759377057e-01  5.7359805183841073e-01  1.3770446009540876e-01  1.6321146437995904e-01  1.3596431661785369e-01  5.3161085603027824e-01  1.2331948375424051e-01  5.9065365241671608e-02  4.7480722956143379e-01  4.9274896974028776e-01  4.8890414116614139e-01  5.0961448722515690e-01  5.0947818608154816e-01  4.9463024442313019e-01  4.3282197216768969e-01  3.4215837389935760e-01  5.3444758929757676e-02  8.1418847785556969e-02  1.6433295987696381e-01  3.0376694568262985e-01  3.0771014892727383e-01  3.7351540549332801e-01  5.4733458433155147e-01  5.3743125240839773e-01  4.4375800800857523e-01  4.7324080298914428e-01  2.8599754276433820e-01  2.6133877294678776e-01  2.7819926986011700e-01  1.3598520511193113e-01  9.2462655389755455e-02  3.4121268965751440e-02  3.4064865288089281e-02  1.4450490925290686e-02  3.7465820025270158e-02  1.7052823471569157e-02  5.2487040144982078e-01  5.1634810731949210e-01  5.7945299996673483e-01  5.7854497586646281e-01  5.6686771754389909e-01  0.0000000000000000e+00  0.0000000000000000e+00  5.0103513485694230e-02  2.7904375302117399e-02  2.5366659935376945e-01  2.092916731