<?xml version="1.0"?>
<VTKFile type="UnstructuredGrid"  version="0.1"  >
<UnstructuredGrid>
<Piece  NumberOfPoints="4266" NumberOfCells="8278">
<Points>
<DataArray  type="Float64"  NumberOfComponents="3"  format="ascii">0.332914414052326 0.6495186433047222 0  0.350035852606398 0.6547949268996196 0  0.3447079687368382 0.641666296524555 0  0.1509629198243326 0.4394805475385499 0  0.1574618691699577 0.4256374769288144 0  0.1639598037427407 0.4371351587205499 0  0.3398416053252553 0.809393929507541 0  0.3182425982666752 0.8112424579812687 0  0.3303994577747308 0.8261781287051263 0  0.2807025901357054 0.7290648010030609 0  0.2693712444400472 0.7397307729917455 0  0.2675171021349819 0.7264088643605077 0  0.5829764460070728 0.4876477017753671 0  0.5636631415662405 0.4806275825024552 0  0.5760180926912839 0.471876660868964 0  -0.1271013736123637 0.8128950760141003 0  -0.1445811026190907 0.8119118999057399 0  -0.1316347946497995 0.7953214846907589 0  -0.4581654891279018 0.7050956478196405 0  -0.4495185704017219 0.6919162010453052 0  -0.4448129225315993 0.7121783443626279 0  -0.1880292666509401 0.6948349589189414 0  -0.2018759567934805 0.679511249409967 0  -0.2024562418194335 0.6939534755125041 0  -0.2140543535049902 0.8855533563615821 0  -0.2177606820535586 0.9056463175150016 0  -0.2018623987848239 0.898190586260888 0  0.4322090051131867 0.6624612598186196 0  0.4146876010546104 0.6789232817918601 0  0.428503716053142 0.6848116787928238 0  0.4029812328035552 0.8407687967874943 0  0.4051394625148355 0.817767417981298 0  0.4178977239794076 0.8281891941993458 0  0.006078813178473639 0.7670889272345903 0  0.02260651009724353 0.7633305111235777 0  0.005125719913978016 0.7490533914639859 0  -0.1571199485664077 0.7620018712563817 0  -0.1746605350189528 0.7770146890610292 0  -0.155743362764028 0.7794691025403202 0  0.1413607558117983 0.4630356083621213 0  0.1374150801464661 0.4794310028365596 0  0.1232856871789455 0.4639250448759384 0  0.06256031293062904 0.8302272950216463 0  0.04798720663564734 0.8386697515782279 0  0.05348580465792466 0.8161067716706272 0  0.07804752670323852 0.6400824141788281 0  0.06033342557497019 0.6526757464603348 0  0.07854531892308642 0.6595378398448787 0  -0.507622037525672 0.4070516661891727 0  -0.5081901160223834 0.3899509166143055 0  -0.4921674949269925 0.3987316133739493 0  -0.3068319627397568 0.1582865587979037 0  -0.3296560711934549 0.1619170474326295 0  -0.3168146285735117 0.1716618704250606 0  -0.4586196893549722 0.5584655526438173 0  -0.446943582453926 0.543154611764088 0  -0.465633660949158 0.5453818001333602 0  0.3831414326149375 0.8107099352150432 0  0.3753817424581156 0.829695642271972 0  0.3920273310628238 0.8281390440289584 0  -0.6749085222138679 0.334411519106221 0  -0.6637201098489627 0.3140132042669073 0  -0.6795939777218857 0.3185739991614875 0  -0.5791130661390927 0.7346014223532424 0  -0.5933681133834627 0.7381717694620178 0  -0.5748132513880116 0.7473695803479472 0  -0.5391069590138896 0.745165717765377 0  -0.5625738666025707 0.7530008968499093 0  -0.5578514271746238 0.7321226777682319 0  -0.2413621327137381 -0.1523138363781986 0  -0.2268202344970037 -0.1591382524790036 0  -0.2412464607625224 -0.1671917300371307 0  0.09927902037336662 0.9149708283062259 0  0.1157895516840189 0.9189776608398325 0  0.1063134374874596 0.9315309264794555 0  0.06116446405179456 0.4911833230803823 0  0.07730596882940004 0.4742920138205912 0  0.07830662548657039 0.4953344334897695 0  -0.101240928421921 0.758652892213407 0  -0.1126561174512113 0.7679041581977381 0  -0.09347689488007802 0.771127355971357 0  -0.6440398227190394 0.4357239888300835 0  -0.6359504943829237 0.4555801607307075 0  -0.6328217507707823 0.4415406738647967 0  0.7263802803538117 0.5631043356200172 0  0.7108704287310817 0.5595900727741592 0  0.7242940159102983 0.5425933715166618 0  0.5038718219523224 0.5544334551657892 0  0.4877560869605388 0.5396871818096673 0  0.5044160012643252 0.5319783219067643 0  0.07081074097663426 0.3186286742512116 0  0.07346941078982666 0.3401307037044159 0  0.0576197784904541 0.3239018341387644 0  -0.3005413308806231 0.1129696382239433 0  -0.3192043351541243 0.09836040108305644 0  -0.3187938517836389 0.1170614402710302 0  -0.04851146773134357 0.4867872264827524 0  -0.0472247571585732 0.5033083754239025 0  -0.06335753174075238 0.491934542470062 0  -0.3892070283047418 0.4786861355265704 0  -0.3714027727299681 0.4756864802956608 0  -0.3827974118685362 0.4623921713509622 0  -0.7411095007633245 0.575029805494202 0  -0.7605003164559296 0.5782101812185654 0  -0.7488870496543684 0.5883132185438822 0  -0.7235805144123104 0.5200565098232155 0  -0.738618812363851 0.5236972966413135 0  -0.7284642311301335 0.5327625764414463 0  -0.2314719560991426 0.03549491619166019 0  -0.2303332909622441 0.05439758634173875 0  -0.2400458841910318 0.04549702594926252 0  -0.008296326578782015 0.6086478568131694 0  0.01122982598345495 0.6123443607668545 0  0.003980826942925998 0.5972159239537265 0  0.01371423415457438 0.8573404176908449 0  -0.002794414052867285 0.8659378714417731 0  0.007843166883866432 0.8762473671836795 0  -0.06939556685310261 0.8588521408268257 0  -0.05948654623964005 0.8457213462672603 0  -0.0557236259197124 0.8588652639392508 0  -0.4589833292911141 0.5816849370690288 0  -0.4476215744943611 0.5677693785034353 0  -0.524949258381664 0.6828407606378746 0  -0.5150187895388144 0.6625705724119358 0  -0.5088018694929584 0.6781838611669838 0  -0.2818430264076795 0.0003382359467896529 0  -0.2652744050783558 0.01201766272913534 0  -0.2792800812328205 0.01792173624780021 0  -0.1375645435999634 0.02928053735830581 0  -0.1393867504822479 0.005795814591015106 0  -0.1580085151925672 0.0190537538730686 0  0.3315205285923649 0.4671007065140736 0  0.3125911820565935 0.4627236293547771 0  0.3198711767839099 0.4743601478668478 0  -0.4416327711127045 0.528188803075854 0  -0.42043207916408 0.5325084464725358 0  -0.4211118506379022 0.5184623300457841 0  -0.400894961242765 0.448519227309272 0  -0.3795398849611781 0.4381803585696618 0  -0.3779683559246526 0.1015844903635233 0  -0.382531330591133 0.08930344838901749 0  -0.3910048287120285 0.102886453132009 0  -0.3869421348601627 0.1749260482753183 0  -0.3757026843568829 0.1541503186649135 0  -0.367050066625653 0.1705222421176009 0  0.1697279419526465 0.3618104710983251 0  0.1894767621098231 0.3621593301494297 0  0.1766148606453463 0.3766321490635753 0  0.3175555361844976 0.6203848435927939 0  0.3345552866765177 0.6089124536076582 0  0.3249698706754737 0.5980365821192262 0  -0.1339413446256386 0.5457851785332439 0  -0.1526445775437433 0.5334441245528644 0  -0.1392346425806756 0.5326434877740723 0  -0.06425900875333679 0.4688403081854889 0  -0.05529929859147319 0.4516548662966833 0  -0.07615422062026381 0.463903402603304 0  -0.278483283260311 0.9185916019998196 0  -0.2956452215663841 0.907791082738426 0  -0.2823823305480626 0.9057518061522771 0  -0.3559212036505843 0.9070901940436692 0  -0.3342343936343474 0.9064002935227704 0  -0.3444887802934804 0.8952572882561013 0  -0.4224693536609981 0.7183353876298264 0  -0.4061482044249017 0.7039694892534414 0  -0.4025148468220963 0.7174557197369782 0  -0.2991768288254021 0.681309361225804 0  -0.2858448756879212 0.6885781091268239 0  -0.2869886080834934 0.6748151268474881 0  0.6782774147583657 0.7337563733932891 0  0.6645157295220289 0.71750992948401 0  0.6635479539083358 0.732281388692918 0  0.5867961229040197 0.5340133274712827 0  0.6002916769092745 0.5300916477538961 0  0.5929900107960145 0.5466215950402394 0  0.5159544060005026 0.6878176699708392 0  0.5122479088226618 0.6710487157848961 0  0.5030023430927832 0.6818864003643841 0  0.4208129660769374 0.7369214216995047 0  0.4161219642283353 0.7186054954352281 0  0.4034166386965947 0.7287978348653198 0  -0.05058840002958302 0.01664330261368143 0  -0.06782801487027172 0.01105825813027281 0  -0.06060561770281364 0.02607735719710087 0  0.08164933247143509 0.2630011494424497 0  0.09369464683973068 0.278533427859859 0  0.09810693527780626 0.2626749665166973 0  -0.1504872407416525 -0.1421626572733334 0  -0.1705165659739513 -0.1404373886184603 0  -0.1604755106946349 -0.1572460092334305 0  -0.1447129275324389 -0.106482705958092 0  -0.1419853542253846 -0.1252313490297633 0  -0.1561372649653827 -0.1177174579139968 0  -0.6951576928890359 0.4758963864002503 0  -0.7106723235953296 0.4708123916406384 0  -0.699431420230763 0.4627236578561629 0  0.4755169449756932 0.4909210876291945 0  0.494127149468629 0.4844880490678379 0  0.4892709553865416 0.500574861277703 0  0.4467729628007534 0.4663817228064593 0  0.4560778556466092 0.4845867088651602 0  0.4631507151083092 0.4694912030156104 0  0.2128942583195763 0.2644806730761504 0  0.2247761344637584 0.2517453977254175 0  0.2091130426491661 0.2490423695972016 0  -0.2875481774750799 0.09537363130635237 0  -0.3034182525195322 0.09642190706859868 0  -0.4515202253909735 0.2025862122920294 0  -0.4386405423918204 0.1828638087383335 0  -0.4523337628777539 0.1879882033728548 0  0.2794138014287033 0.9317363626854627 0  0.277358580676769 0.9472805712477746 0  0.2900975625439389 0.9410569185089307 0  0.2567741049371187 0.9104522999621892 0  0.2404500137637132 0.8947278027972118 0  0.2649032218030534 0.8904103733438133 0  0.2242467665771498 0.448158124301501 0  0.2295529427779222 0.4342960624490632 0  0.2385612639111096 0.4520321359849135 0  0.1170643917672381 0.3566870190192344 0  0.1110106043840692 0.3391497435850614 0  0.1240090541008423 0.33598826927084 0  -0.0790543871400315 0.492648131300411 0  -0.06321789373789302 0.5076469891182717 0  -0.1680294870233596 0.3033125654794206 0  -0.1522463381690819 0.3173597305697894 0  -0.1656108268022235 0.3252530803521215 0  -0.5328934950392848 0.8042508636529442 0  -0.5158006838270621 0.8085421858525899 0  -0.5267114469912973 0.8158140225539202 0  -0.4984766512980752 0.7147319776453481 0  -0.4961536227570694 0.7365122789311654 0  -0.4854796835698065 0.7259824008309884 0  -0.7453748565371457 0.449346994057572 0  -0.7497203529707557 0.46785017658
[...]
<PointData  Scalars="f_3411-2"> 
<DataArray  type="Float64"  Name="f_3411-2"  format="ascii">4.4790155796313652e-01  4.2521936361455448e-01  4.5058025209564423e-01  9.2182070885419365e-01  9.3969910457631600e-01  9.1809106579377497e-01  1.9118588461941377e-01  2.0181316297454127e-01  1.7140762508654084e-01  3.5635481630185545e-01  3.4582891138199512e-01  3.6893922283782676e-01  3.9382633195022149e-01  4.2841194216502160e-01  4.2140499514530000e-01  2.8407109542227732e-01  2.8082472396921210e-01  3.1280433189902207e-01  2.5317090222424754e-01  2.8004169095746223e-01  2.5512554493911538e-01  4.6607569833429668e-01  4.8580900840048613e-01  4.6044304238096112e-01  1.3683277421538023e-01  1.0442379062285957e-01  1.2161123927465818e-01  3.3936001878806216e-01  3.3132088527894715e-01  3.0988476750195854e-01  1.0289473936764491e-01  1.3438325092991499e-01  1.1033100444423465e-01  3.8140370575573751e-01  3.8749142592976221e-01  4.1343544688527728e-01  3.6208700755945405e-01  3.2978440020482197e-01  3.3248579423994568e-01  8.8901945196561649e-01  8.6397409151119209e-01  8.9584092267516502e-01  2.6729761693696280e-01  2.5454735164532888e-01  2.9255951633353816e-01  6.0238016540710537e-01  5.8301653980671042e-01  5.6699088040033629e-01  5.9167552780324961e-01  6.1014982891981717e-01  6.2321723343972202e-01  1.1062483804687129e+00  1.0749700803201510e+00  1.0847518920930939e+00  4.6094391487034136e-01  4.9567625689333600e-01  4.7085841693345587e-01  1.6020849975079079e-01  1.3751971032914395e-01  1.2854891284697956e-01  4.0613583221523331e-01  4.4007581653621503e-01  4.1069901470225995e-01  9.8089861226566821e-02  7.9681316531657512e-02  8.6440210430177550e-02  1.2299189490383575e-01  9.0953689885253056e-02  1.2179199437157981e-01  1.1842862933613374e+00  1.1940769788447620e+00  1.1742718334117983e+00  1.2213417494354926e-01  1.1252596622208612e-01  9.4488139456313389e-02  8.7043598249901544e-01  8.9510371837061531e-01  8.5923899210950305e-01  3.8459688146845739e-01  3.6541868500222258e-01  3.6417829838820415e-01  3.6282784776286769e-01  3.5457770690989804e-01  3.7336066168288262e-01  1.2399634116577887e-01  1.4711448319550746e-01  1.4689004562421104e-01  4.1336183063189874e-01  4.5227547114466427e-01  4.4207844901950311e-01  1.1320571343677184e+00  1.1025235921343146e+00  1.1284649347597133e+00  1.1391567849317374e+00  1.1217759565081256e+00  1.1140384510621086e+00  8.8033007625354431e-01  8.5221812193290969e-01  8.6863517298428661e-01  6.5316879051893739e-01  6.7763201315458177e-01  6.8346386252164082e-01  9.4018514896530569e-02  6.6847444275925344e-02  7.1600984639662066e-02  1.6943631997898836e-01  1.4597765279170843e-01  1.5063523713401761e-01  1.2414299850592914e+00  1.2388936768442989e+00  1.2307088986562118e+00  6.6824377924123968e-01  6.6137220820786535e-01  6.8894552790829655e-01  2.2518602626365264e-01  2.1080160985165974e-01  1.9371827477818848e-01  2.1813162683595264e-01  2.4132824382618534e-01  2.1970579014135561e-01  4.2802903138922471e-01  4.6017584852533344e-01  2.1874251166260625e-01  2.5597066298899906e-01  2.4127638887446959e-01  1.1886287794970374e+00  1.2075271842047932e+00  1.1907439012518632e+00  1.3197117008001782e+00  1.3204957040892391e+00  1.3071303028010670e+00  7.3316119470396335e-01  7.5904085679053612e-01  7.3432953104249432e-01  5.2283334589318986e-01  5.4105076821808185e-01  5.6021492415799834e-01  6.8118914876756087e-01  7.2077549533995544e-01  1.0390000673744861e+00  1.0367588288061795e+00  1.0190201776664576e+00  9.8723432512647746e-01  1.0164423373037668e+00  1.0185131287972222e+00  1.0264304563564823e+00  1.0122494061180078e+00  1.0008883538654132e+00  5.0749771724060133e-01  5.1140019075266829e-01  5.3704864219122261e-01  7.5263745599689080e-01  7.6531269484144204e-01  7.7295420277874971e-01  9.0757903540139839e-01  9.3784172991951753e-01  9.1260747265328768e-01  5.9964066066638726e-02  6.7850372992011396e-02  7.7214970320658938e-02  3.7846310763682792e-02  5.0241906232856251e-02  6.0860601484678832e-02  2.6598603144183292e-01  3.0140019821403580e-01  2.8422279577570614e-01  4.2240114108468030e-01  4.1968911226568129e-01  4.4175301989345833e-01  0.0000000000000000e+00  3.2046920601038996e-02  1.6827067961934204e-02  3.3508575174862160e-01  3.2200180047652432e-01  3.1227266508404511e-01  2.2113616373780604e-01  2.4749991248241626e-01  2.4215985089212655e-01  2.3997665066371177e-01  2.7098842183775296e-01  2.6658852555238116e-01  1.3585839982348709e+00  1.3542786239581617e+00  1.3549436933415544e+00  1.1962426809058784e+00  1.1738811851848818e+00  1.1901090745177956e+00  1.2678994640753225e+00  1.2546560102387885e+00  1.2508907025575988e+00  1.2912752049727201e+00  1.2834382543963079e+00  1.2780550628121337e+00  2.5049861075226543e-01  2.3350469006495556e-01  2.5686155381498299e-01  5.3195127511899132e-01  5.1634757934560360e-01  5.0195091354983457e-01  6.0061622771633560e-01  5.6468889451887572e-01  5.7551858949900525e-01  1.1142226766918970e+00  1.1170105480019483e+00  1.1335317755501031e+00  1.1626644595336064e+00  1.1425788555050629e+00  8.7060927130510057e-01  9.0403375717534940e-01  8.7922048236405781e-01  4.0326242319724384e-02  1.8537785340923971e-02  2.1844306385224620e-02  8.1604956779818369e-02  1.1221064964924365e-01  1.0823012782664231e-01  8.5985812289965236e-01  8.7677869129253683e-01  8.4243097697723823e-01  1.0628968628099982e+00  1.0897345105577607e+00  1.0880445480593910e+00  8.6367241063395106e-01  8.4173040479073280e-01  1.1041565002329470e+00  1.0968029278614326e+00  1.0780829549384323e+00  5.2523250130424408e-02  6.1191151135700117e-02  4.2522722035366139e-02  2.0187013264697229e-01  1.7425108890236812e-01  1.9861871718471277e-01  2.0354676685120573e-01  1.8147975893664953e-01  2.0486660652166694e-01  1.0654755467231194e+00  1.0322198444612156e+00  1.0528315882805870e+00  4.7339449766570019e-01  4.9721531550139331e-01  4.5321392109030950e-01  4.6591188699034225e-01  4.7622939282703858e-01  5.5405685951913475e-01  5.2980708387993658e-01  5.4175763453096215e-01  6.5720910734373184e-01  6.3059684948510430e-01  6.7235807396570546e-01  8.6892706273439535e-01  8.6766664914088298e-01  8.8854492495275883e-01  1.0247301288280515e+00  1.0179155798509529e+00  1.0041616250725180e+00  1.0263026990748738e+00  1.0480241994189292e+00  1.0499276765357710e+00  4.1428145292284302e-01  4.4449831618589991e-01  4.3133582857862413e-01  3.5203788972364591e-01  3.2600264960772896e-01  3.6626928349882065e-01  1.2024905674843032e-01  1.0461194983635010e-01  1.0018819047606221e-01  2.6488771527586680e-01  2.6640018397149590e-01  2.9735427187092600e-01  8.1335708004431539e-01  8.2632616897109556e-01  8.5386433494563208e-01  4.8573965592648560e-01  4.5152256088529735e-01  4.7588682001178928e-01  7.7298333885265424e-01  7.7625868976195633e-01  7.4897550036139748e-01  6.9783211531105660e-01  6.6947492108991680e-01  6.8476925216630646e-01  4.3745867595875654e-01  4.5331208821840818e-01  4.3333717013539330e-01  4.6518018224476521e-01  4.8984187099049903e-01  5.0602445327751411e-01  1.2400443607298228e+00  1.2437410413950221e+00  1.2266754578719996e+00  1.1897498775626258e+00  1.1904157655179637e+00  1.2058366281775572e+00  1.3063240548315171e+00  1.3175498757673110e+00  1.3058261989428186e+00  3.4622591706580379e-02  6.0341787782626319e-02  5.9558529584686749e-02  2.8581063142795615e-01  2.8209673102790428e-01  2.5781015771838811e-01  3.3959772883604862e-02  1.9112430490524669e-02  5.1811234227041987e-02  1.0698346656499433e-01  9.0941882015418016e-02  1.1816410378727316e-01  7.4966477262392273e-01  7.2965662582988489e-01  7.2299457355808527e-01  3.7778725936206464e-01  3.6451277697757017e-01  3.5749370159843497e-01  7.7358676594113629e-01  7.7882530029642516e-01  7.9574448071786252e-01  8.4669619686418707e-01  8.2398729483543387e-01  8.4160868040856784e-01  8.8643482497398984e-01  9.2592148038500754e-01  9.0626906302856636e-01  5.7142873657065074e-01  5.8157942318470490e-01  5.4822010627222195e-01  8.2133484113544020e-01  8.3741464171351832e-01  4.1317148269242354e-01  4.2937456036577026e-01  3.9064719383976626e-01  2.9950850775612997e-01  3.1016925071643286e-01  2.8810876526645623e-01  3.6927422989950803e-01  3.8358054964725408e-01  3.9225871563904779e-01  1.1017385821094630e+00  1.1222372352115586e+00  1.1248023037483470e+00  1.2143635291235484e+00  1.1967808773503299e+00  1.2044910354571607e+00  1.2904878876843606e+00  1.2998476815478828e+00  1.2838489831991708e+00  6.7397122256609432e-01  6.4333038543656618e-01  6.7553038560372614e-01  4.0968785300042609e-01  3.8394998084491527e-01  3.8370945879730650e-01  1.2904410091936889e+00  1.2859615129768538e+00  1.2978554765003445e+00  1.2270237849344954e+00  1.2278120054351667e+00  1.2472437241581091e+00  2.2184808555241273e-01  2.4255315343209002e-01  2.2009046610165245e-01  1.9862044274590665e-01  1.7396445106052952e-01  6.9822404075566213e-01  7.0533328463374179e-01  6.8192308080726372e-01  8.6336151805580230e-01  8.5323734104061955e-01  8.4283915482612892e-01  7.9230631895425752e-01  8.2248614010143062e-01  8.0280615293480828e-01  4.0879067098362304e-01  4.0386929842508762e-01  4.2866708183795360e-01  2.2726636289056884e-01  2.4983449116313597e-01  2.2114020086673525e-01  2.6468379500947986e-01  2.8122946427290563e-01  2.4760613396184872e-01  2.0452655596919775e-01  2.0526490048326584e-01  1.8483002201507215e-01  2.1991423188484518e-01  1.9205051286887762e-01  2.1461032652803724e-01  1.3077484769120262e-01  1.0677720182636255e-01  1.1503328138935882e-01  6.2881686136284576e-01  6.2834366286396504e-01  7.5531691537302004e-01  1.6793449053547810e-01  1.6489555131937794e-01  1.3790188885881488e-01  5.3430962257250816e-02  8.0110537110320137e-02  5.8310346850665169e-02  4.0022075145033398e-01  4.0495808070956768e-01  4.2678941955915278e-01  1.1527799643096748e-01  1.0238360646773810e-01  8.0517488266399845e-02  1.0159617157857674e+00  1.0301021659860201e+00  1.0048581836060684e+00  8.9206037452760778e-01  9.2750881585395772e-01  9.1701395271848118e-01  9.8855383238251948e-01  9.8620395117474391e-01  9.6037354806335828e-01  7.8183575481866929e-01  7.9051351532736314e-01  8.0862349451406434e-01  2.3458419851079201e-01  2.4422413348353164e-01  2.2102215040277748e-01  1.3842204202567848e-01  1.7890410121925915e-01  1.9537009732032945e-01  1.3138476268669638e-01  1.4376262534808332e-01  1.4936464335184738e-01  2.2799166290142253e-01  2.3321939798205163e-01  2.4783701593383076e-01  2.6645554055638632e-01  2.5754334401775864e-01  2.4200862283607402e-01  1.1744649835377197e+00  1.1572882445504658e+00  1.1742994907909294e+00  1.2346249676420171e+00  1.2403355688954896e+00  1.1523633342817352e+00  1.1363765841248070e+00  1.1333839702075776e+00  1.0167849331328160e+00  1.0195912142051853e+00  5.4312780263085847e-01  5.1047952583988165e-01  5.5469192066260442e-01  5.8576640661508572e-01  5.5587537219605221e-01  5.9434503001787131e-01  1.3287249946429274e+00  1.3309423924849131e+00  1.3247634342354158e+00  1.3402604955567450e+00  1.3362416114288351e+00  3.1795016758128275e-01  3.5301064474337773e-01  3.4940907762626844e-01  3.1252326361457161e-01  3.2933599824586579e-01  3.4214804886770334e-01  1.4000019197670141e-01  1.2898535928256899e-01  1.2125236218995915e-01  1.7078149041579377e-01  2.0846308224925048e-01  1.8510824200384066e-01  3.1698286989053914e-01  3.3900675291600674e-01  3.1648629143610452e-01  1.1069468047444611e+00  1.1271526704482255e+00  1.1257125568272788e+00  1.0867628786835868e+00  1.0776460697695538e+00  9.1743948679098997e-01  9.3164294259720604e-01  9.4087428702474074e-01  1.0918332369750450e+00  1.0767415766472883e+00  1.0618303274065488e+00  1.5199285296385426e-01  1.8292582663487089e-01  1.7776074923463633e-01  1.0143658974067543e-01  1.0647906263548887e-01  1.2632772599163891e-01  1.2205146444732944e+00  1.2134828132409237e+00  1.2311436349149110e+00  3.2131484721171127e-01  3.0759415842372573e-01  3.3644099622423401e-01  5.6824388946439996e-01  5.8635744854883876e-01  5.9107752643799705e-01  7.9937919518745815e-01  7.6291233854328866e-01  7.6881434720411634e-01  7.2663201653628173e-01  6.9959440603736522e-01  7.3594975055556799e-01  9.3596138645914650e-01  9.0289995075573204e-01  7.4983534126037132e-01  5.9987611121182838e-01  5.6941688763679554e-01  6.0191049468046021e-01  5.4254658629351893e-01  5.7199270796655732e-01  5.6700678626659184e-01  6.5451954096913711e-01  6.8418045397781224e-01  6.5727018348224542e-01  5.6259469617265634e-01  5.6942377703434199e-01  5.8735710793092633e-01  6.2229195717075325e-01  6.0050869490305125e-01  6.2628041472821760e-01  6.0975303830367389e-01  6.3579332038602698e-01  6.0185372227284695e-01  7.4276930041992850e-01  7.1000554151335094e-01  7.4797695220941707e-01  1.0883203140769870e+00  1.2242739100027042e+00  1.2072132943324672e+00  1.2324201566295916e+00  4.7925947317028322e-01  4.4805778215421238e-01  4.6200508826027087e-01  6.9522320834603746e-01  6.7753851434360601e-01  7.1732311161062812e-01  8.2863459314404675e-01  8.1052041191521496e-01  8.3906758944217774e-01  8.2854749503432923e-01  7.9380419414005654e-01  1.9623051654865331e-01  1.8026027659408253e-01  2.1096152176664054e-01  3.0620140619542535e-01  2.9462974163990141e-01  2.7614024792893560e-01  2.8091584196025813e-02  4.8447400917068860e-02  3.6418381509647535e-01  3.6141669676467392e-01  3.9301510780676657e-01  4.3069918668305723e-01  4.4119215313131721e-01  4.1593053099210175e-01  6.1119280903209416e-01  5.8855463703053101e-01  5.8654059004794168e-01  9.7235925927784783e-01  9.9667200124975375e-01  1.0935212215027779e+00  1.1130464405746971e+00  1.0873439975292389e+00  1.2806818859065880e+00  1.2613125457635959e+00  1.2668717053305267e+00  1.2724837448684001e+00  1.2873599705820853e+00  1.2704018717545340e+00  1.3401212406215941e+00  1.3295380288871375e+00  1.3359923361425854e+00  1.3471685671873392e+00  1.3516176850956299e+00  1.3451426042830574e+00  1.6284804319755752e-01  1.8444693144963570e-01  1.8775837073135007e-01  2.7654998427895422e-01  5.2433210793307228e-01  4.9256051654982741e-01  5.0758660524513310e-01  5.9522710344861940e-01  6.3072693927420775e-01  6.1110628399749078e-01  1.2380325414445009e-01  1.1817864432451215e-01  9.8805373779351488e-02  3.0640516484369534e-01  3.2092789311904685e-01  3.3132018916077627e-01  2.2897959450124403e-01  2.2593165682615526e-01  3.3901435852257161e-01  3.2001620408307263e-01  3.1678817006768289e-01  2.1825148221005447e-01  2.5141741354896824e-01  2.4409226070497525e-01  1.9161632245130783e-01  2.1483473218347326e-01  2.2796216331823960e-01  2.4766102805496210e-01  2.6330925273379563e-01  8.9522240704420430e-01  1.0351524772110716e+00  1.0121401793954794e+00  1.0212940036946554e+00  1.3273885308314450e+00  1.2654527661100203e+00  1.2596180303390474e+00  1.2354282824721319e+00  1.2403485951986810e+00  1.2546710953398503e+00  1.2343682990866816e+00  1.2479905541824574e+00  1.2406599277139372e+00  5.2700775621515694e-01  5.0775336606855792e-01  5.0451946143757553e-01  4.8159353260322169e-01  5.0276154682726215e-01  1.0636023938961536e+00  1.0444020769532665e+00  1.0342096219162866e+00  9.5168802938597585e-01  9.3845134867832858e-01  9.6786106321649679e-01  1.3452174868591482e+00  1.3444381200823743e+00  1.3521790616054699e+00  3.0611866959131856e-01  2.9614513865292769e-01  3.2520001752687322e-01  3.2160600379745213e-01  2.9085918038187464e-01  1.6380590674409665e-01  1.3982014691976488e-01  1.6091889306670604e-01  8.5309194339810346e-01  8.4272416644886317e-01  8.2222179685977070e-01  8.9723481152147933e-01  8.7930169792127266e-01  6.8953813586215537e-02  6.2797676152292703e-02  8.5674980194901287e-02  1.0307660024176048e-01  8.0786776131504576e-02  9.0697611636694681e-02  1.7266034853671167e-01  1.8253998811713198e-01  1.5197761666200768e-01  4.9485848385361564e-01  4.3688683167253106e-01  4.7178982362944949e-01  4.5320759483575707e-01  1.1839557646309768e+00  1.1575595012987427e+00  1.1736543712110976e+00  1.0439793805919881e+00  3.1091291353625056e-01  3.1473822848354965e-01  3.8213178701440598e-01  3.9325901009769598e-01  8.6673660338817030e-02  6.5559043071219222e-02  6.3851514901249726e-02  1.0823489290289177e+00  1.1012739012905766e+00  1.0775823297900275e+00  1.1052979302739885e+00  1.1267094152140522e+00  1.0980171150123919e+00  6.1186314070807157e-01  6.3071025492735078e-01  5.9271304787121382e-01  5.7045862301439754e-01  5.3821914011868333e-01  5.4845982241141356e-01  2.2879251810431384e-01  2.0573487928630288e-01  2.1736224648989638e-01  2.3293463420538266e-01  2.6459152723195878e-01  2.5391274575177664e-01  1.2857187627211672e-01  1.4130285459291961e-01  1.5531564775151688e-01  1.7697356976029574e-01  1.7594803224528435e-01  1.9953979868336935e-01  2.2693044544805446e-01  2.1041076752367627e-01  4.1102759694196572e-01  4.0936407551921850e-01  6.0299091253521275e-01  6.1938464613924749e-01  6.5153247692768979e-01  6.2885353538756394e-01  5.8288775149589489e-01  5.4397519193774591e-01  5.6643756270589707e-01  7.6852938064410459e-01  7.9413432795944516e-01  7.6384214420627849e-01  9.2893196796238409e-01  9.2190085628261897e-01  9.4838712012370163e-01  2.1585278588029630e-01  2.0689381267678286e-01  1.0329646653091605e-01  9.3407178379740496e-02  8.5279389158017319e-02  1.0287706845446486e-01  9.5253836362103189e-02  1.2435654822874016e-01  1.2140411241081590e-01  1.3381069706279944e+00  1.3381089130319752e+00  1.1759878918368796e+00  1.1914495050288949e+00  1.1931003527076800e+00  1.1114852260360439e+00  1.0901469599743199e+00  1.1239381343706534e+00  1.0197355450817949e+00  1.0371923383627490e+00  1.0123011144699556e+00  1.0345718436840787e+00  1.0314613481387136e+00  1.0148195740620958e+00  3.8231309161701271e-01  3.5818932142284166e-01  3.5603981810488095e-01  3.4445601745777293e-01  3.1127580841596986e-01  7.5933509502230623e-01  7.8600790963595801e-01  7.8083882484049394e-01  7.5904118388347896e-01  7.5283188690764513e-01  1.0141109597944260e+00  9.9123052675975198e-01  1.0150285593799810e+00  1.0688516583655399e+00  1.0866038810389052e+00  1.0886101121034883e+00  3.4276586104276735e-01  3.4844390202134268e-01  3.5825110012320333e-01  3.6457221591102329e-01  3.2280759776534423e-01  1.1886771290288312e-01  1.1263072997676563e-01  2.5044584008997245e-01  2.7152845306286494e-01  2.3197209493220203e-01  3.9484604569565757e-01  4.2191996082987221e-01  3.9756402017077341e-01  3.2211467286704326e-01  3.0675509707341975e-01  3.0036588813364512e-01  8.1713144018586281e-01  8.5315538913115518e-01  8.5382657354863700e-01  8.3278935491706996e-01  8.4278999738213600e-01  1.2564150590778671e+00  1.2569750006786269e+00  1.2414776144744768e+00  1.2388443725168923e+00  1.2196891940456762e+00  1.0925888126116468e-01  9.1452240634144311e-02  1.1101997512549547e-01  1.1809789144477058e-01  9.4922062882173919e-02  3.2505528094814634e-01  3.4198991207306823e-01  3.1949189962094199e-01  4.5210095817533497e-01  4.5564088522831153e-01  4.8329389382215932e-01  7.6088127701994079e-01  7.4142841918553681e-01  5.3728581063656022e-01  5.1779503285044515e-01  5.3772000623240701e-01  3.7229624938789824e-01  3.9416233713263782e-01  4.1028572059178031e-01  4.4224385217917722e-01  4.6654830188453605e-01  4.6453108690098782e-01  4.2816363500775896e-02  2.8013047791970606e-02  4.7092314085605817e-02  1.2527067272153825e+00  1.3108430695919147e+00  1.3196093334871248e+00  1.3109044531563476e+00  7.4528191980946401e-02  1.0011082594028556e-01  9.9784221155864938e-02  1.0400298971900812e+00  1.0633679053688507e+00  7.4990220936120244e-01  7.7901364858261724e-01  7.5666301450832163e-01  8.7391373506180192e-01  8.7373407928733005e-01  8.5551482230193487e-01  5.5827598256689381e-01  5.5447880173070396e-01  5.9467003679249986e-01  5.3085454284541367e-01  5.0572139302051999e-01  4.9439045407779464e-01  5.2688558346345071e-01  4.9992966372491543e-01  5.0557953113902232e-01  6.3475319840451250e-01  6.0928647767110222e-01  6.2747270805366484e-01  6.3366031944300327e-01  6.4144223739592898e-01  8.1239204829958067e-01  7.892691007