<?xml version="1.0"?>
<VTKFile type="UnstructuredGrid"  version="0.1"  >
<UnstructuredGrid>
<Piece  NumberOfPoints="1130" NumberOfCells="2134">
<Points>
<DataArray  type="Float64"  NumberOfComponents="3"  format="ascii">0.2924965119749844 0.5806454640576162 0  0.2931357425666441 0.6158095738938106 0  0.2722845889387188 0.5986007514407707 0  0.06245154218797691 0.7943760977968389 0  0.05544056292684415 0.8360220202702611 0  0.02724914271240671 0.7995232918838924 0  0.1335850646589621 0.7291917770211511 0  0.09257890860895016 0.7227107754768907 0  0.1207009360036598 0.6914172198262521 0  -0.1127572484929876 0.6217075882064447 0  -0.09059232536756107 0.6461457043336694 0  -0.08244382822329682 0.6193610233350183 0  -0.1373197942797624 0.4432044140746515 0  -0.1708498639144158 0.4258289329533242 0  -0.1683718478273803 0.4550768101836 0  -0.2097608088645187 0.2706029166526365 0  -0.2553472029916841 0.2715809926304027 0  -0.2391685209522224 0.2307322500123088 0  -0.2612214313441482 0.4860827085271667 0  -0.2999268493360679 0.4942668376827834 0  -0.2761784895078877 0.5087930656610014 0  -0.6336799748740927 0.5412138273049375 0  -0.6367242063828276 0.4943077948128051 0  -0.6623691907668592 0.5109580860210953 0  -0.8189328877697528 0.4225545775266913 0  -0.7732510673161435 0.420047019447516 0  -0.7972043328982701 0.4010362957246634 0  0.09400378958013947 0.2055695036858353 0  0.1290725919584871 0.2207698374846717 0  0.1219808629418566 0.1890773044854493 0  -0.4309945018733153 0.5062643786080123 0  -0.4382089257601645 0.5497266439837095 0  -0.4119159386366162 0.5339223899750409 0  -0.6227781113910986 0.4494196041151011 0  -0.6567942943576646 0.4640171858672734 0  -0.6481157979026415 0.4373082602627743 0  -0.4712405913227501 0.1677045787871355 0  -0.5101607540755746 0.1422745461243285 0  -0.4855314936343032 0.1275817475248843 0  0.2162525383925422 0.08615652924307352 0  0.2246786184519418 0.05722134459703598 0  0.1858331413839794 0.06712133478128747 0  -0.395297655555004 0.5597085933417444 0  -0.393845571583094 0.5930343773993745 0  -0.3703409314215836 0.5744126151601694 0  -0.1732844607114084 0.7831016787925337 0  -0.2042612800303741 0.7831655859422791 0  -0.1887231468431922 0.8072354228488953 0  -0.2401164734357646 0.7642938074902216 0  -0.2007050285273371 0.7523935126534872 0  -0.2268594363809904 0.7369868775014541 0  -0.1696450233376555 0.7253721306646218 0  -0.2085138894959716 0.7108694539094691 0  -0.4304447217574816 0.7500053130336214 0  -0.4315890123179937 0.7095731294438389 0  -0.4566159372858562 0.7305137127660739 0  0.2068741599965308 0.6805917788483005 0  0.2050805379439151 0.7234446339117643 0  0.2218709634298657 0.7011057471390761 0  0.2162993597616463 -0.05864296304509958 0  0.1750354584180112 -0.06241539112817548 0  0.193720732252597 -0.0392358669981461 0  -0.0230893327402 0.1929077709269967 0  0.004761282153553419 0.1841053551365959 0  -0.0294157900699326 0.1671086648702482 0  0.1565461142119031 0.6738661189577495 0  0.1462519036200293 0.703786842447927 0  0.1808354785713632 0.6837740099682186 0  0.003584375230144248 0.8973914042388084 0  0.004168520773651397 0.9265977742636927 0  -0.02260959360525044 0.8990907582775318 0  -0.5553672154460828 0.1314190645461342 0  -0.5235028484586995 0.1112039343107129 0  0.1603091172319885 0.1987437044449037 0  0.1587220491624921 0.2266983155339805 0  0.1814480564065501 0.2139661830238536 0  -0.1528819986293607 0.1263255869844637 0  -0.1492482924853433 0.1580573615581254 0  -0.121785890413324 0.1264951045251249 0  0.06840700246376145 0.1813414697793323 0  0.05901930246285114 0.213188864059535 0  -0.1752833856350064 0.2330884014058902 0  -0.1463494540489943 0.2498979671367919 0  -0.1597540380916604 0.2128762917837419 0  -0.2666080625010207 0.8166860089768937 0  -0.2708315979539392 0.7816567174515252 0  -0.3125666401907646 0.8078345074970555 0  -0.404120413395211 0.790596968601049 0  -0.3736980272227576 0.8094398659945521 0  -0.3782485212331815 0.783550436492126 0  -0.6302032721917927 0.1842725605598824 0  -0.6662816078013655 0.1849757094845715 0  -0.6278359119408464 0.1559995968664962 0  0.04697055465782802 0.07164191122244783 0  0.03568486653295815 0.02782254432188264 0  0.07147362760462897 0.03813006809902156 0  0.07629170137027992 0.001199503106725944 0  -0.08254551195616064 0.2442760807068146 0  -0.1256264531238477 0.2318577153827438 0  -0.1100359059370774 0.2587079641700211 0  -0.2057340115688616 0.336734776516796 0  -0.1583351405483 0.3413766438249081 0  -0.1746963906066072 0.2991947239182672 0  0.2069802702871247 0.2191319025157533 0  0.2277242868701167 0.1958518940723663 0  0.2327020808785168 0.2211695803373901 0  0.08377029897187802 0.3968728637950909 0  0.09430952409275566 0.3649796683197574 0  0.1096177565212272 0.4086602604886229 0  0.1993614565197579 0.6303751881642145 0  0.2183947193733605 0.602039791860232 0  0.2244999519515443 0.6267009039980487 0  0.2603645391142563 0.6285756014906578 0  0.09969329332901172 0.7636117992424346 0  0.1302396754667923 0.7597935550942527 0  0.3054091438189218 0.7866902927858057 0  0.3357122182608844 0.7742694490625159 0  0.3340932520791566 0.8018765332110196 0  -0.3419627731396465 0.7347283846920364 0  -0.3520950571293062 0.7809111428238701 0  -0.3692699615099612 0.7343393389683085 0  -0.5840098151137766 0.2990048577514015 0  -0.6080756186142645 0.3165493008588801 0  -0.5823578507234605 0.3265486810853542 0  -0.7051763504253612 0.250234969313039 0  -0.7068111699962591 0.2244295694172429 0  -0.7307168990284388 0.2554584211146595 0  -0.4836131513794496 0.6232288808042636 0  -0.4928484342320275 0.5960519446409566 0  -0.5117044153203884 0.6291244044274967 0  -0.4409287066533773 0.6702178123895151 0  -0.4738508613963038 0.6572424830600011 0  -0.4501566366006438 0.6453775654719015 0  -0.3429952027518596 0.5223588630033167 0  -0.3206329923626178 0.5503883121993246 0  -0.3685624877363587 0.5418514467512064 0  -0.3893699539648601 0.6237039937970631 0  -0.3422033714709892 0.6265868844716567 0  -0.3644188643635339 0.6027670761648919 0  -0.6575050454237221 0.2288298014079799 0  -0.6447641122924658 0.2516770218638512 0  -0.6798884378325298 0.2427667040117376 0  0.2579067442312717 0.4688983724209494 0  0.2888513267043814 0.4378317642069166 0  0.2515399520834085 0.4316117661101545 0  0.2722069355506832 0.8284688529037881 0  0.2642325312678823 0.8678131532115284 0  0.2341417510346148 0.8335977078735048 0  -0.609195381974423 0.1346104521165029 0  -0.581512774190834 0.1459772283855625 0  -0.606311706240823 0.1720374621998764 0  -0.1137242964947925 0.7342494510189826 0  -0.1085533329295061 0.7711569775053645 0  -0.08842803878944591 0.7495212997310273 0  -0.09035277733789798 0.4919220888235711 0  -0.1387502465387686 0.4915819350525998 0  -0.1147755671194965 0.5236308404416747 0  -0.08799438577573623 0.3012994251470535 0  -0.08054411621706016 0.273239330540436 0  -0.06068658392917529 0.3120024979569823 0  -2.220446049250313e-16 0 0  0.03833101908736652 -0.01236714587332863 0  0.03332211297248573 0.1779883120077971 0  0.0553878700818049 0.1568128372514456 0  0.03879512812050209 0.1013532927181565 0  0.01956592186948998 0.06947958240077355 0  -0.3110288607107251 0.08135098352660518 0  -0.344921080983376 0.08229130413897219 0  -0.328161300472874 0.05287969798319995 0  -0.08860505921103043 0.5920506521433744 0  -0.1159536089414161 0.590966322597226 0  -0.1021964897951705 0.6788144063269812 0  -0.136261090104428 0.700646753224388 0  -0.1228430025016362 0.6531026549154566 0  0.1415956346790651 0.6023153900601184 0  0.1455023681906896 0.561880690090387 0  0.173814985803951 0.5850222891851874 0  -0.7039359164953137 0.1054244296900993 0  -0.7241549932545398 0.08547378493790607 0  -0.7240317325936491 0.1290401816176439 0  -0.7146836516968359 0.3927695373773623 0  -0.7171931948150422 0.4336007787289713 0  -0.7460250674529035 0.4301448157942048 0  -0.8336681057691238 0.345316635927459 0  -0.8219806880639507 0.3831114868492926 0  -0.8020922577552831 0.3633132148152522 0  -0.5618738577248394 0.6403651441164777 0  -0.5473882199946626 0.6849348980099506 0  -0.538289355892541 0.6573388026093229 0  -0.4824797505496254 0.3838810792864338 0  -0.5230731684421793 0.3642691414098798 0  -0.5137211790366101 0.3967288418064787 0  -0.09386743165719327 0.8868230745198202 0  -0.1334231263863611 0.8942731301668522 0  -0.1092845443900445 0.9137012029455377 0  -0.04523581318749946 0.8244439404340452 0  -0.0769396102945519 0.7908921470434424 0  -0.09343945562699482 0.8132315912754917 0  0.0455101775939576 -0.1178143478783519 0  0.07525030372245567 -0.08800061275601394 0  0.04261815316074052 -0.08518924674757319 0  0.1424349288786705 -0.03683910833544325 0  0.1406428911848698 -0.004598908502305238 0  0.1639118323293636 -0.01947543299796284 0  0.1859045193885197 -0.1024004418516471 0  0.19058579448583 -0.1427680390589207 0  0.216883382856332 -0.1337619999027692 0  -0.2373028979847076 0.5473261424768866 0  -0.1932653732436898 0.5665479687088435 0  -0.2062682446319116 0.5362814988625322 0  -0.2126522817199431 0.3845511360064228 0  -0.1866730065200072 0.3639012639806355 0  -0.4174180203574351 0.2086894809925613 0  -0.4048848604657676 0.1820574049833631 0  -0.4464806129667586 0.1834083348043779 0  -0.4568841982408385 0.1262359142486632 0  -0.4313452580001016 0.1582968730533858 0  0.07231769945658416 0.5196157514494713 0  0.03312463406788048 0.5008840041940618 0  0.06513249352082014 0.4842812410161731 0  -0.0004027730160685861 0.7771386075583826 0  -0.03905074592193825 0.7819032022368267 0  -0.02332525375120641 0.8059095547793576 0  -0.2649860329145938 0.1824261056420857 0  -0.3041191825682435 0.1773695031720618 0  -0.2803378790137869 0.1428742985583878 0  -0.2687508696165652 0.1158982906339185 0  -0.2514827659916298 0.1482915158136655 0  -0.322899042696953 0.1999682459755028 0  -0.3484887776281561 0.1655499381999704 0  -0.3515501295523116 0.2070651371825604 0  -0.3903979979922381 0.1564355708354559 0  -0.9163492829346521 0.2448659195690242 0  -0.9192152205576599 0.2847796305242293 0  
[...]
<PointData  Scalars="f_2282-2"> 
<DataArray  type="Float64"  Name="f_2282-2"  format="ascii">2.8598839290604844e-01  2.5886612988687613e-01  2.7953006893253762e-01  1.6077401805168740e-01  1.2617847354047640e-01  1.5776651709852363e-01  2.0784123143735664e-01  2.1890243882343427e-01  2.4184600396321332e-01  3.0163739492978098e-01  2.8396896209793254e-01  3.0747348606974700e-01  4.3730156525519193e-01  4.4119039017753076e-01  4.2092214124822630e-01  5.2055770529425938e-01  5.0146232326578621e-01  5.2648468943906723e-01  3.6820957862843401e-01  3.4678461545161987e-01  3.4607081170792953e-01  1.2995254072935697e-01  1.5302109904466915e-01  1.2727168597110877e-01  5.8469787175557328e-02  9.1420766530695696e-02  8.1825029945408009e-02  5.8117174245623471e-01  5.6773073736359281e-01  5.8159483155031433e-01  2.7346604176222156e-01  2.4077461124760380e-01  2.6530317571260958e-01  1.8489295139381548e-01  1.5441147977504727e-01  1.7351820861510789e-01  4.0950732486287156e-01  3.8646823888117399e-01  4.0798023323757504e-01  5.7830034192129298e-01  5.7886402929354197e-01  5.9242739727117233e-01  2.5608384700333964e-01  2.3305649286977903e-01  2.5737321525091045e-01  1.5606858440492119e-01  1.5014967372025270e-01  1.3358495241672738e-01  1.5717526643914920e-01  1.7576359684636178e-01  1.8258623793421869e-01  2.0489897398843587e-01  2.0838292533675715e-01  1.0405071323414986e-01  1.3227972868107574e-01  1.0665776850032628e-01  2.3356428748543925e-01  1.9863891297800554e-01  2.1315914446400125e-01  5.8198536842446769e-01  5.9745186425238961e-01  5.9245477941196456e-01  5.9392098157775131e-01  5.9795930966683031e-01  6.0236965852703062e-01  2.5033626123228786e-01  2.2711564500450199e-01  2.3707274582053744e-01  7.7608190549002545e-02  5.4550424875145893e-02  7.5643000054242363e-02  3.5276938391883667e-01  3.8173896011517527e-01  5.6809334173579140e-01  5.5697341955244661e-01  5.5503828084841300e-01  5.9256154881520495e-01  5.8491384054977469e-01  6.0051095137762645e-01  5.9441763477927789e-01  5.8324955975127513e-01  5.4957911368684986e-01  5.5033873784412191e-01  5.6258329095713278e-01  1.0874480425637989e-01  1.3505999285593176e-01  1.0287212301281275e-01  8.5301190008335581e-02  8.2416089797312631e-02  9.9511399587083271e-02  2.8077777722198932e-01  2.5042707540006603e-01  2.8882557386565388e-01  6.2387835262474900e-01  6.2930374457050720e-01  6.2442026976348830e-01  6.2557890362547741e-01  5.6656191930365607e-01  5.6416579254231836e-01  5.5479673173926347e-01  4.8684129528106623e-01  4.9911365449025158e-01  5.1807201137846515e-01  5.4411553300536619e-01  5.4457870693726229e-01  5.3293470210069438e-01  4.7905952850281902e-01  4.9869307333139229e-01  4.6683029085157696e-01  2.7657046711214678e-01  2.9430625670073840e-01  2.7269563425336701e-01  2.6015113844487864e-01  1.8331505776108417e-01  1.8280528897798479e-01  1.2110960517518539e-01  1.2131918427552128e-01  1.0092156334486962e-01  1.4931629417642661e-01  1.1070687067555214e-01  1.3942238149568029e-01  2.8096404625771837e-01  2.5572791404788925e-01  2.7096680479596241e-01  2.0210010226589964e-01  2.0772688577383944e-01  1.7977996678465621e-01  1.6739376197457720e-01  1.8031891128972680e-01  1.4860153855222422e-01  1.5611511575237941e-01  1.4927836634265773e-01  1.6909755062191753e-01  3.0737845117747226e-01  2.9740023553867767e-01  2.8168180618483829e-01  2.1318972697094971e-01  2.3136847365060048e-01  2.3962971015895940e-01  2.4688065109594004e-01  2.4994491535752220e-01  2.2413033606044583e-01  3.8183746744342467e-01  3.9043108857875802e-01  4.1007873619479823e-01  9.8038837698804046e-02  6.9793220297161493e-02  1.0309289770945640e-01  3.0857411032674087e-01  3.2895424947306490e-01  3.0252053607482532e-01  2.0658009729373819e-01  1.7598554042882816e-01  1.9622672945526229e-01  4.0955574019209151e-01  4.0137661476300424e-01  3.8110706199672961e-01  5.3715394954976836e-01  5.5317902141442710e-01  5.3471886075413366e-01  6.3118275117321365e-01  6.2947999689774636e-01  5.9872202428994870e-01  6.0353948639486099e-01  6.1920786316193555e-01  6.2589245634001267e-01  5.3292867588249226e-01  5.1276241195317063e-01  5.2626302206285513e-01  3.2960086649347281e-01  3.2639543475894045e-01  2.5500627866434472e-01  2.3150259183162641e-01  2.7369163016483705e-01  3.1266441973048875e-01  3.4481594699873186e-01  3.1974347875544823e-01  2.3344879862362053e-01  2.1803922959615768e-01  2.1304219880898773e-01  1.4471474650916075e-01  1.2597101652214243e-01  1.0700546721213991e-01  7.3742183277479376e-02  6.9656200713071326e-02  9.1306913864667757e-02  1.1462488901826241e-01  9.4294242438120249e-02  1.1648933408292565e-01  3.1454789927170723e-01  2.9702473884677827e-01  2.8686362381769082e-01  8.2347341115470332e-02  7.2100976966659652e-02  5.9257977265341828e-02  1.3666365986227649e-01  1.6248583522613605e-01  1.4232462142456279e-01  6.1541850792918129e-01  6.1773615282198624e-01  6.2207263370532950e-01  6.0970300303622293e-01  6.1127249291179975e-01  6.0406747905059521e-01  5.8699443061650047e-01  5.7624738491447314e-01  5.6808100232545988e-01  3.3119811975373586e-01  3.2977094460587025e-01  3.4964208348955911e-01  4.5531187341327339e-01  4.7679547940485645e-01  4.3523780915753174e-01  4.5196672260305382e-01  4.2295323397505419e-01  4.2982447465867973e-01  4.4066908182912706e-01  3.9029999601508636e-01  4.0816840003099397e-01  4.1846475927606802e-01  1.7756984637323234e-01  1.7227089867553150e-01  1.5248281781585232e-01  5.3278749452493590e-01  5.1455705103120042e-01  5.3658408084811338e-01  5.4903954639721697e-01  5.4936624747691842e-01  4.9660893862312011e-01  4.9261054692719181e-01  4.7772725330756782e-01  4.6875835445186420e-01  3.7370220663106836e-02  2.6769528761949817e-02  4.6564629623307673e-02  3.5558472391226742e-01  3.4014023731828580e-01  3.2130054532740249e-01  2.7429670749928170e-01  2.4936402587120801e-01  4.0945117377718360e-02  4.8160895595005096e-02  6.5452403756037794e-02  2.3364266963820979e-01  2.6595718856998679e-01  2.4848419607667807e-01  1.7319169776401561e-01  1.9965988502987828e-01  1.6713888761047221e-01  7.9734541997430075e-02  5.1649422052859412e-02  5.6316905550817156e-02  5.8193943422774896e-02  8.1561428591703206e-02  5.8359925077425108e-02  3.8528674858296508e-01  3.8130758825666078e-01  4.0835661455613331e-01  5.0905193676082094e-01  3.3731943036331619e-01  3.3067558275511344e-01  3.1282664289252282e-01  3.9305572874516881e-01  4.2905656840160605e-01  3.9201607957051871e-01  1.2003871185039071e-01  1.0911107471962457e-01  1.8350333021050624e-01  2.0737989485930783e-01  1.0035443857043375e-01  8.2720221756742804e-02  1.0435321219468421e-01  4.2202058630633504e-01  4.3544768571032300e-01  4.4392682574587000e-01  2.5482938925821980e-01  2.6270311793823159e-01  2.3976601001459272e-01  6.0790158206912148e-01  6.2038571620948813e-01  6.1481000687770049e-01  1.1765705127708442e-01  1.3171304920691537e-01  1.3883788943496550e-01  0.0000000000000000e+00  0.0000000000000000e+00  5.2128945667520521e-01  5.3783582833563082e-01  5.3264859279191534e-01  6.0837748734429076e-01  5.4715504397547232e-01  5.3312703005916207e-01  5.5573999158981946e-01  4.6775387541210056e-01  4.6715461849761458e-01  4.8552930006642425e-01  2.8034169544351367e-01  2.9987121260022326e-01  2.6415974916607077e-01  3.0474537174155830e-01  2.2240841733551500e-01  1.9642269660329365e-01  2.1140284252765809e-01  2.7309945883478520e-01  2.3746801620203384e-01  2.5974284589706176e-01  3.5485067776313817e-01  3.3411318920965966e-01  3.5688394864479356e-01  0.0000000000000000e+00  1.6538470571020151e-02  1.8281787425405666e-02  3.9619327744725721e-02  2.5361577349586394e-02  4.8782289407366917e-02  2.6865077533895088e-01  2.4513722088230533e-01  2.2775410353006953e-01  1.3447242316997662e-01  1.1580656006278477e-01  1.6524509716467664e-01  1.5923622366448409e-01  5.5118866469076944e-01  5.4011805023122050e-01  5.0452530719443867e-01  4.8626173000437201e-01  4.9420196436545882e-01  5.0239527841478870e-01  3.2319883509486658e-01  2.9789518808209031e-01  3.1075882385113557e-01  7.6196032079579812e-02  7.6791733229307546e-02  5.1710204468509109e-02  7.9774281115208318e-02  6.2561698540192479e-01  6.2664676165847444e-01  6.2967232002339413e-01  6.2969567121072789e-01  2.3839287205556964e-01  2.5907694686391175e-01  2.5001149139962747e-01  4.4022106066394007e-01  4.2075848102750840e-01  4.5339723760542822e-01  5.3124430086661945e-01  5.5093903117706744e-01  4.7420393653454540e-01  4.7347373672380727e-01  4.9709324183570708e-01  1.9151089995801163e-01  1.1694211804194411e-01  1.4446483321965034e-01  1.6487085989003747e-01  1.6497603617076703e-01  1.0637881093718535e-01  3.2516323865141455e-01  3.3071623919322474e-01  3.0379132334831077e-01  1.9837068778014955e-01  2.2330179987525092e-01  2.0534374593808902e-01  1.9291996863745231e-01  1.9524414317919667e-01  5.4344086581326634e-01  6.0416753158888514e-01  6.0577243082338939e-01  6.1109284089913951e-01  2.0824446604294847e-01  2.3302468505557619e-01  2.4396981835365278e-01  1.5515539501224490e-01  1.9138672135490475e-01  1.7283939085281805e-01  3.1617682682034833e-02  1.7142419929516990e-02  6.0834790384817006e-01  6.1890195782155866e-01  6.1985501869250970e-01  5.7474288685275010e-01  5.9341848701473621e-01  5.2070000001359706e-01  5.0734799531246100e-01  5.5096917688288860e-01  5.6926685396493448e-01  5.5687672628999385e-01  5.6165512784502603e-01  5.6960210381144227e-01  5.8208504969946140e-01  2.5462595804382671e-01  2.5479597963405060e-01  2.2614389352796452e-01  6.1511858344935311e-01  6.1209252879639098e-01  6.1989395377678691e-01  2.7928772166368743e-01  2.8115632823330405e-01  2.5556699307831376e-01  5.3555420423103384e-01  5.2749465671281737e-01  3.2843428716272710e-01  3.0142913028142682e-01  3.2427585939981546e-01  3.5061194901152165e-01  4.0565411784508554e-01  4.1598097612310858e-01  4.0028417375779596e-01  4.2248886623309645e-01  4.1438129472917573e-01  3.9851455698520899e-01  3.8282617292333071e-01  4.0526577682124704e-01  4.3355499028903255e-01  4.0543015932343635e-01  3.5947464766742088e-01  3.5824883402593077e-01  4.2786312132706400e-01  4.5951138938384539e-01  3.2315019686531216e-01  3.1910767910601096e-01  3.6510122427866426e-01  3.8608425164812293e-01  1.3943485473226383e-01  1.6966963062569604e-01  1.5974495200227884e-01  2.5177644572137053e-01  7.0781662818863944e-02  7.5777077678784693e-02  5.4893972153762384e-02  6.2904775962732640e-02  9.1286269749655174e-02  7.0581575496913351e-02  5.2310840711212003e-01  1.4483382187713817e-01  2.7691715516668225e-01  6.1228610386993176e-01  6.0259345020829425e-01  6.2180614245325416e-01  3.2376261018039931e-01  2.9977650826352670e-01  3.2813300011533464e-01  3.5275337352129682e-01  5.1215317703648275e-02  6.3376478465064695e-02  7.9938473648133071e-02  5.2335251558562124e-01  5.1352886770678385e-01  4.5220880302322425e-01  4.5841300842902544e-01  3.6920531495919734e-01  2.1786077277646659e-01  2.0433726882942660e-01  2.4045597967191706e-01  2.9996027947405888e-02  1.4618644431280265e-02  4.4305271138392728e-02  1.3212780289627382e-01  0.0000000000000000e+00  2.0265219838162332e-02  0.0000000000000000e+00  1.0965558930122962e-01  9.0477453576168279e-02  8.7836593122775336e-02  4.6976023566444919e-01  4.5588642647738403e-01  4.9159700192234612e-01  4.6818147082285172e-01  4.9522386072014551e-01  3.3365738289883956e-01  3.6371153959305896e-01  3.5149648530266975e-01  3.8011126572556858e-01  4.7333986397541394e-01  4.9521370015089183e-01  4.7652519067248306e-01  4.6014892691661030e-01  4.4372006449499668e-01  4.6324268781967864e-01  1.5965517171976343e-01  1.8111828258440424e-01  1.5937617421828315e-01  5.6622624345756552e-02  4.7901113561449438e-02  3.4421420504938266e-02  0.0000000000000000e+00  0.0000000000000000e+00  3.8963290324137090e-02  2.1870141595381715e-02  9.6574245595924813e-02  9.8882686943437645e-02  5.5458639800283781e-02  5.1805921838518745e-02  2.5422760958053403e-02  0.0000000000000000e+00  0.0000000000000000e+00  2.5868010955282106e-01  2.5989363673254390e-01  2.3702706599889611e-01  6.0771541139546381e-01  6.1546500619920363e-01  5.9406899555732473e-01  6.0263408426741538e-01  5.9340048743132368e-01  3.7572265694620516e-01  3.9492602494429763e-01  3.9955969800215912e-01  4.5328716049934220e-01  4.6798137217348196e-01  2.1958877771939661e-01  2.4063635168325734e-01  1.5696529016425462e-01  1.5306475645258702e-01  1.2904402548894575e-01  3.1677857872405973e-01  2.9610431371067336e-01  3.4922330897606702e-01  4.7680038972046501e-01  4.9193485261999675e-01  4.6307718637082662e-01  2.7707178800823273e-01  2.3602474538047183e-01  1.9998334875375870e-01  2.2975834942314960e-01  2.5957650264502713e-01  2.8252760003287081e-01  2.6122479698564582e-01  1.3898416691722473e-01  1.1465326479860487e-01  9.9951431312506125e-02  6.2833093244649196e-01  6.2973251511106076e-01  6.2631739479039017e-01  6.2555371044793306e-01  6.2778449047846796e-01  1.0311136406424329e-01  7.8372240744108923e-02  6.2680297597257995e-01  6.2368500445963893e-01  6.0629582963333795e-01  5.9920704971577521e-01  5.9729201407126276e-01  1.0896011912246133e-01  1.3893348270322944e-01  1.8229248880779478e-01  1.5597843809784570e-01  1.8360822120246498e-01  3.1938139009937860e-02  2.9591857087606335e-02  1.4471093556659886e-02  4.4549543890846183e-01  4.1819181073095590e-01  4.0161173827299357e-01  3.9634970174946282e-01  9.9945450044636369e-02  8.3324868269394253e-02  2.7051327872762050e-02  5.6525933113267229e-02  3.3696140343289360e-01  3.0087928784815832e-01  2.7276047105230483e-01  6.7973860241918121e-02  9.4722375350354590e-02  9.2861567170291842e-02  7.4853475362105543e-02  6.3278677751935103e-02  1.1190869534532942e-01  1.3530744351202029e-01  1.5006371556936823e-01  4.0959627119765037e-02  2.5027739725070889e-02  2.1383439661256678e-02  5.4187950104395373e-02  6.1943003885229131e-01  7.5419330851362709e-02  5.5086976582551600e-02  5.3427349833883607e-02  1.0128412966538522e-01  9.3050760548971378e-02  5.3527231933705444e-01  4.0528799582728331e-01  3.8291759303377515e-01  3.8446064999740753e-01  3.5334338823658373e-01  3.9411493073131565e-01  4.2610035458306700e-01  4.5055390356195268e-01  3.5674406871676445e-02  3.2260843017686509e-02  5.4150101258339245e-01  5.5909372306996619e-01  5.4418649103859895e-01  3.5184368015960099e-01  4.0994720219422742e-01  3.8653106106034979e-01  1.8359994597058876e-01  6.0109957862205377e-01  4.8517796445351985e-01  5.1271042282418600e-01  5.6803201192028818e-01  5.8826067328419873e-01  5.7873960890226361e-01  5.6957692209928823e-01  2.3070341475729109e-01  1.9515652716535170e-01  2.1134342170814299e-01  2.2724860890030013e-01  3.2887188392795580e-01  3.0485707131307799e-01  3.6831424537025698e-01  3.8417424799026367e-01  2.3018722887997795e-01  3.0786795171023423e-01  3.9249369895989589e-01  4.1344069037220427e-01  3.6447862025546252e-01  3.5657922550433541e-01  5.8337822884217660e-01  5.9290844583907720e-01  5.8972307123238765e-01  5.9209665560778446e-01  1.3625302237371578e-01  1.8597663730683739e-01  1.9278793051980891e-01  1.6128022900336586e-01  2.1745496344346249e-02  1.5361946819491332e-01  1.2600525733761445e-01  1.0639652462496731e-01  1.1883100738956831e-01  6.0338984422823294e-01  3.8482561428296501e-02  5.1132424061773638e-02  1.8389968648099771e-02  4.1270989588252638e-01  3.8525486422409044e-01  4.1188871999425564e-01  4.2577410667655785e-01  4.3361723646229300e-01  6.2918265717673649e-01  6.2308156079945409e-01  5.7969539767396738e-01  5.7190979151804122e-01  5.8411130533829814e-01  5.9397728975769148e-01  5.7852080470017675e-01  5.8151564582344761e-01  3.7012040743104702e-01  3.7267582080815459e-01  3.2584441409250747e-01  2.1324129774710907e-01  2.0279542605983536e-01  2.2168765885551084e-01  3.4844775040610021e-01  3.3992958885411095e-01  3.6392315007803677e-01  3.6048956763565071e-01  3.3692897288436036e-01  5.9196521949448300e-01  5.4088916409914545e-01  5.6130208104850188e-01  5.4823121390333207e-01  5.4019781935762490e-01  9.8887460861130080e-02  7.6509018887042535e-02  1.0293670225765666e-01  4.5019931148643222e-01  4.3100971924322684e-01  4.3032967285728424e-01  5.2463902865862855e-01  4.7645047831488246e-01  6.2331873131134186e-01  5.9195393827432830e-01  5.9471520511618203e-01  4.5391022844795997e-01  4.3298024764117582e-01  4.0979362032284228e-01  2.0124726589638289e-01  1.5600332299526898e-01  1.0662622443811123e-01  1.3038564663718963e-01  1.2350403236798718e-01  1.1004390615376011e-01  0.0000000000000000e+00  1.7342085796260454e-02  3.9413180374841053e-02  4.3239460701458243e-01  4.0907310328839214e-01  4.2091005401759179e-01  1.2275109898402796e-01  1.7816548121097775e-01  2.1443491019320482e-01  4.9363077589353405e-01  4.6725583942257515e-01  4.8175596006903776e-01  4.7008815141333976e-01  4.4836372315219036e-01  4.5071997341299974e-01  4.2563531814288785e-01  3.5606916842045158e-02  4.9143998415814995e-02  9.5539741713766418e-02  1.7437716375210410e-01  1.8467041770753026e-01  2.0429314779478389e-01  2.0334016161508439e-01  5.7793213184108938e-01  5.8526950386622600e-01  5.7294672392096957e-01  5.1481267055482860e-01  5.5821499623289687e-02  6.1106314268186031e-02  6.2330986891532464e-02  8.4682701390602841e-02  3.3411655731915008e-01  7.9841766598699349e-02  6.2819505513127566e-02  5.7457824498064872e-02  7.9727464659490724e-02  0.0000000000000000e+00  1.5745835372489286e-02  1.9225761126138833e-02  3.7427400511976638e-01  4.2779291354421850e-01  4.5022253912457244e-01  2.0545023725664988e-01  2.4888204886254564e-01  2.1605356702003384e-01  2.7947001081645445e-01  2.5545315488071224e-01  5.0050144420193998e-01  5.1361754264739978e-01  1.9471626949114260e-01  2.5499747236862114e-01  1.5515702102096934e-01  1.7986562535691711e-01  2.5122524137310959e-01  2.5814911793263390e-01  1.2850055559992293e-01  3.5113391253279704e-02  3.0423041815842156e-02  6.0835391403495465e-01  6.2320314993749026e-01  2.9161626840959093e-01  3.1368665168522336e-01  2.9213314894557835e-01  2.6766195281072169e-01  2.5056070960931609e-01  3.0143932026241868e-02  3.3837178124746264e-02  2.4627187902310069e-02  6.5951995130819160e-02  6.1198526902815867e-02  1.2696629229820852e-01  1.4940542626882591e-01  6.0219678549053890e-01  6.1421917689754713e-01  5.9827016779628472e-01  6.1618089986200930e-01  6.0672811434874463e-01  6.1502187258716678e-01  6.1194793892248811e-01  2.6691014747386632e-01  2.9594165171251802e-01  1.2367038563901314e-01  1.0363852903033009e-01  1.1671092334058454e-01  3.8053328451469422e-02  1.7133809235103662e-02  2.0704667251831232e-02  3.6390905898855364e-01  3.8426543898627857e-01  4.3173649453489638e-01  5.1171865734768240e-01  5.1239148631030795e-01  4.9324061181083717e-01  1.9289910285781467e-01  2.0228535669306488e-01  2.1564615336935197e-01  6.5675333083043380e-02  0.0000000000000000e+00  0.0000000000000000e+00  2.7039021183852180e-02  2.1588286196550475e-02  4.4667115017084924e-01  6.0873456539793247e-01  1.4662269978876222e-01  1.7375500736096960e-01  1.4477166120662360e-01  5.6436035577949062e-01  1.3131613245125656e-01  6.2914217581154799e-02  5.0428376546799958e-01  5.2326610210888103e-01  5.1919833093321577e-01  5.4110352069395729e-01  5.4095883102096343e-01  5.2525520669608172e-01  4.5984565423766682e-01  3.6378431339238448e-01  5.6927642917683277e-02  8.6717126806383049e-02  1.7494643428549506e-01  3.2306447146234041e-01  3.2724659223119346e-01  3.9702460056529043e-01  5.8098139326089659e-01  5.7051375816772676e-01  4.7142523684422816e-01  5.0262716149840392e-01  3.0420817425428326e-01  2.7802952080109977e-01  2.9592930743023849e-01  1.4479469081659804e-01  9.8473898230867982e-02  3.6346812315452566e-02  3.6286653462100395e-02  1.5393318283902228e-02  3.9909136513072770e-02  1.8165306230631374e-02  5.5723438776802992e-01  5.4822389009507988e-01  6.1491991185906036e-01  6.1396104258139894e-01  6.0162336284052553e-01  0.0000000000000000e+00  0.0000000000000000e+00  5.3368946530374627e-02  2.9724803878141682e-02  2.6988440273271580e-01  2.227447701