<?xml version="1.0"?>
<VTKFile type="UnstructuredGrid"  version="0.1"  >
<UnstructuredGrid>
<Piece  NumberOfPoints="198" NumberOfCells="349">
<Points>
<DataArray  type="Float64"  NumberOfComponents="3"  format="ascii">1 0 0  0.8090169943749475 0.5877852522924731 0  0.3090169943749475 0.9510565162951535 0  -0.3090169943749473 0.9510565162951536 0  -0.8090169943749473 0.5877852522924732 0  -1 1.224646799147353e-16 0  -0.8090169943749476 -0.587785252292473 0  -0.3090169943749476 -0.9510565162951535 0  0.3090169943749472 -0.9510565162951536 0  0.8090169943749473 -0.5877852522924734 0  -1.110223024625157e-16 -5.263895571620023e-17 0  0.3090169943749474 -0.42532540417602 0  0.3090169943749475 0.4253254041760199 0  -0.3090169943749473 0.42532540417602 0  -0.1909830056250525 -0.4636769719457942 0  -0.5 -0.03835156776977398 0  0.4472135954999577 -7.903607676896695e-17 0  5.551115123125783e-17 0.9510565162951536 0  -0.9045084971874737 0.2938926261462367 0  -1.665334536937735e-16 -0.9510565162951536 0  0.9045084971874737 0.2938926261462366 0  0.9045084971874737 -0.2938926261462367 0  -0.5284700655416561 -0.3839559773937936 0  -0.5590169943749476 -0.7694208842938133 0  0.5590169943749472 -0.7694208842938135 0  5.551115123125783e-17 0.5973731442349167 0  -0.5590169943749473 0.7694208842938135 0  0.5590169943749475 0.7694208842938133 0  -0.9045084971874737 -0.2938926261462365 0  -0.6067627457812105 0.3596090151611283 0  0.1545084971874735 -0.6881909602355868 0  0.5894881706405842 0.2813419126533472 0  0.5894881706405842 -0.2813419126533473 0  -0.03610679774997888 0.2986865721174583 0  -0.2754305231718578 0.1403212426811205 0  0.7236067977499787 0.03687306222428306 0  -0.2381966011250105 -0.1730599607436498 0  0.2236067977499788 -0.1624598481164533 0  0.2236067977499788 0.1624598481164532 0  0.3090169943749475 0.6881909602355867 0  -0.3090169943749474 0.6881909602355869 0  -0.7424858380208771 0.07878842483052524 0  -0.1064338553438001 -0.7116545797493192 0  -0.004620859575183073 -0.2842569436258265 0  0.5363610965924408 -0.5230158014833801 0  0.5363610965924408 0.5230158014833799 0  -0.6825663487665107 -0.197287040949731 0  -0.3437496429839471 -0.6541660092062287 0  0.02805653880494272 -0.5046951437594209 0  -0.4935661446562 0.5541081540490044 0  0.3558578599726062 -0.6296994602090562 0  -0.4887465642981877 0.1779686059210673 0  0.1545084971874738 0.9510565162951536 0  -0.1545084971874736 0.9510565162951536 0  -0.8567627457812106 -0.4408389392193547 0  -0.6840169943749476 -0.6786030682931432 0  0.1215711582539924 0.7548547481901761 0  -0.1215711582539922 0.7548547481901761 0  0.3969475175468052 -0.2514465396963472 0  0.4161474508437578 0.1923552210734533 0  0.7519847779548887 -0.1624585498617041 0  0.8567627457812106 0.4408389392193549 0  0.7018330046418588 -0.4327150285558872 0  -0.9522542485937369 -0.1469463130731182 0  0.1472537032149111 0.3325769780003021 0  -0.3396156835418244 -0.338680151847245 0  0.1797902782616908 0.5567581822058033 0  -0.1265576474687262 0.4611464202339115 0  -0.6833752083228387 -0.4657318372760356 0  -0.5097047704306568 -0.2115269647695972 0  0.5988851224019895 -0.08256885495909046 0  0.1431090418407698 -0.3749988266940408 0  -0.5197992636823638 -0.5840095307768502 0  0.6932292733198356 0.4689336170815191 0  0.2763932022500207 0 0  0.4340169943749472 -0.8602387002944836 0  0.2904623084174011 -0.7803890150340407 0  0.1545084971874735 -0.9510565162951536 0  -0.6568432420526754 0.5189446035085858 0  -0.8567627457812106 0.440838939219355 0  -0.3274493970350074 -0.02476185079892107 0  -0.162650546334607 -0.02658545669518714 0  -0.3826780147362901 -0.4958858991718409 0  0.7500740544152324 0.2104173176038238 0  0.9522542485937369 0.1469463130731183 0  0.4630576725930888 0.3802251430823818 0  0.5727748264484818 0.1131487739806926 0  -0.251980144472566 -0.7939069787017985 0  -0.7387364776058952 0.2501847103174842 0  -0.1053497272715904 0.1336895345585899 0  0.05856617286049656 0.154504679440612 0  0.8567627457812106 -0.440838939219355 0  0.9522542485937369 -0.1469463130731183 0  0.6840169943749472 -0.6786030682931434 0  0.4340169943749475 0.8602387002944833 0  -0.4340169943749476 -0.8602387002944833 0  -0.6840169943749473 0.6786030682931434 0  -0.9522542485937369 0.1469463130731184 0  -0.1545084971874739 -0.9510565162951536 0  0.6840169943749475 0.6786030682931432 0  -0.4340169943749473 0.8602387002944836 0  -0.7998811964632913 -0.07820888183012785 0  -0.3617061006925215 0.2746351388640039 0  -0.1987429286300807 0.2844471749195785 0  0.4581771595944628 -0.3915830234535967 0  0.2242081462844126 -0.5523177000346096 0  0.07725424859373667 -0.8196237382653702 0  -0.4605966496363177 0.4047310014797202 0  0.03222579360474661 0.4419518459608135 0  -0.6511703126983927 -0.04902801465257584 0  -0.0877420436484935 -0.1579396151441232 0  0.06814041168019892 -0.145870527527654 0  -0.7525557486312473 -0.3312997704256836 0  -0.1598855334371273 -0.3094812189592886 0  -0.148481688870639 0.608415133347186 0  0.8548010205533414 -0.03405191576309032 0  0.3872009313729254 0.5567581822058033 0  -0.5839300457222187 0.07446745246746668 0  0.3569751754680532 -0.1159882655757683 0  0.2574227139216014 -0.2967808965072044 0  0.2793295716308738 0.28966292695489 0  0.1381966011250103 0.03596784431504235 0  0.7259835209629366 -0.2974150672818406 0  -0.3789816692327651 -0.1567837280568786 0  0.4870951687275726 0.6517896917519179 0  -0.2501829629815114 0.8196237382653703 0  0.2317627457812105 0.8372219130830029 0  -0.06726996953764212 -0.4083931613111971 0  -0.8712429190104385 0.03939421241526266 0  0.7100836857378715 0.3371318010987032 0  0.5069686833726306 -0.1778321741421778 0  -0.7374010091938759 0.382871186706824 0  -0.3545084971874737 0.5567581822058034 0  -0.4480746418436737 0.6855409320787877 0  0.01919922618381847 -0.6461176091148323 0  -0.09712921171292271 -0.5678433394618861 0  -0.05321692767190013 -0.8313555480222364 0  -0.2274706969188744 -0.5909166170603392 0  -0.6175476205233632 0.2009011135530358 0  0.4073543707288165 -0.510785991922756 0  -0.4214090619390636 0.06601276509368131 0  0.8294522820315986 0.1095209438749853 0  0.5639128225799005 -0.6447266356910606 0  0.5807680582161145 -0.4076293439363489 0  0.5844971180263266 0.4080935970417133 0  0.4357157791463627 -0.7311440989108481 0  0.6900321523282975 -0.5554494449191295 0  -0.4613212064972685 -0.6932319517387465 0  -0.2367845512111366 0.5239156384385112 0  6.938893903907228e-17 0.8152914800233294 0  -0.8053538053165709 -0.2184428184175948 0  -0.6030713076663936 -0.2886015795377238 0  0.1132849623945903 -0.2579283198678292 0  0.3307372542187893 0.1074630481736746 0  -0.8299628598805739 0.1664411708128681 0  -0.5068773697948669 0.2953477746734217 0  -0.567246484543699 0.649315027746995 0  0.1466501908641672 0.4471162714852071 0  0.1135317944260193 -0.5813571818814703 0  -0.5581756323993863 0.4615210173799082 0  -0.3645791088333309 -0.7678484847100042 0  0.191393695919507 -0.8409550974375281 0  -0.02164112412799835 0.7063323121291231 0  -0.3805893859911927 0.1676393942298241 0  0.1868161095861061 -0.06070023357813113 0  -0.5701051494057652 -0.1212824933827459 0  0.4131741325850322 0.7439491477604113 0  -0.7600293879840578 0.488150059755728 0  0.5919687153950425 0.6181009475698421 0  0.03900388750312118 -0.3985272355273499 0  -0.6358905681980312 -0.5723115818162263 0  -0.5685490581201667 -0.4859077806559445 0  -0.3800917065536531 0.7679849372017999 0  -0.412864396300793 -0.2593246217634971 0  0.6870608333203967 0.573699699648647 0  0.2535021677116276 -0.6531585494761247 0  0.46220149997321 -0.6051452577212844 0  0.1288835443181309 -0.4782587169028398 0  0.2834956048173081 0.5294776140816675 0  0.1046251649014884 0.642271077673473 0  0.2084949479515891 0.6577805424337153 0  -0.07725424859373679 0.9510565162951536 0  0.0772542485937369 0.9510565162951536 0  0.3680467702088361 0.3413282109906579 0  -0.2113897740949305 -0.6958330984721218 0  0.3218496503769694 0.7893820136708692 0  -0.9761271242968684 -0.07347315653655903 0  0.9761271242968684 0.07347315653655914 0  -0.1586653635040544 -0.8448317494688451 0  0.645477231618393 0.1908513108811925 0  -0.19282408742693 0.07458252238330194 0  0.8142354204243452 -0.2444350163852713 0  0.6432080951684722 -0.1842728618062824 0  0.7558873240034621 -0.06021712999911812 0  0.1158813728906053 0.8566754791330948 0  -0.0939146830926596 0.851713771515916 0  0.8806356214843422 -0.3673657826827958 0  0.8506800568809543 -0.1361184468471062 0  </DataArray>
</Points>
<Cells>
<DataArray  type="UInt32"  Name="connectivity"  format="ascii">25 66 108  49 107 132  13 102 103  30 105 175  81 89 190  35 70 86  38 74 121  16 74 153  15 69 123  51 102 155  35 115 193  4 78 96  49 78 159  42 134 135  20 84 141  35 86 189  32 58 104  43 152 169  14 127 135  62 91 122  48 134 158  16 59 153  12 120 183  1 61 73  46 101 150  41 101 128  34 102 163  11 71 119  30 105 158  45 73 144  45 85 116  16 70 86  37 111 152  15 80 123  34 102 103  29 78 159  34 89 190  115 193 197  36 110 113  10 81 110  105 158 177  43 113 127  38 90 121  10 81 89  56 149 162  39 124 166  53 125 195  63 101 150  7 95 160  135 137 184  36 80 81  71 152 169  11 58 104  93 142 146  27 124 166  12 85 116  46 112 151  36 80 123  69 123 173  23 55 72  48 134 135  30 134 158  49 132 133  49 78 156  50 76 145  51 102 163  15 109 165  2 52 126  56 149 194  56 126 180  54 68 112  46 151 165  22 68 171  6 54 68  53 181 195  39 126 180  40 57 125  25 67 114  44 104 143  32 104 143  38 74 153  31 86 189  35 70 193  9 62 146  20 61 129  9 93 146  63 101 186  25 66 179  33 64 108  47 72 147  47 72 82  66 108 157  64 108 157  13 107 132  13 132 148  68 170 171  55 72 170  46 109 165  22 69 151  37 58 118  70 130 192  43 127 169  43 111 152  22 65 82  72 170 171  45 116 124  45 85 144  37 74 118  16 74 118  75 76 145  8 75 76  77 106 161  19 77 106  19 106 136  51 117 138  29 88 131  4 79 167  34 80 140  15 80 140  43 110 111  10 110 111  14 135 137  14 65 82  20 83 129  35 83 189  35 115 141  0 92 115  59 120 183  31 59 85  31 59 86  16 59 86  42 134 136  18 79 131  18 88 131  10 89 90  33 89 90  38 64 90  33 64 90  21 191 196  9 62 91  92 115 197  44 142 146  24 93 142  56 179 180  39 116 124  47 147 160  23 72 147  78 96 156  26 96 156  18 88 154  18 97 154  42 136 188  87 184 188  45 124 168  45 73 174  40 132 133  3 53 125  46 101 109  41 101 109  33 67 103  13 67 103  34 89 103  33 89 103  11 104 139  44 104 139  50 105 175  11 105 139  30 76 161  30 106 161  102 107 155  13 102 107  25 67 108  33 67 108  15 109 117  41 109 117  36 81 110  43 110 113  10 111 121  10 90 121  28 63 150  28 54 112  36 65 113  14 65 113  57 149 162  40 57 114  84 141 187  39 116 178  12 116 178  41 88 138  41 117 138  16 70 130  16 118 130  11 58 119  37 58 119  12 64 120  38 64 120  111 121 164  74 121 164  60 122 191  32 130 192  36 65 173  36 123 173  27 99 168  27 124 168  3 100 125  40 133 172  27 94 166  2 94 185  14 113 127  48 127 135  97 128 154  5 97 128  61 73 129  31 85 144  58 118 130  32 58 130  29 78 131  79 131 167  40 114 148  40 132 148  26 100 172  26 133 172  106 134 136  30 106 134  47 137 184  42 135 184  98 136 188  19 98 136  14 82 137  47 82 137  29 107 155  29 88 138  50 105 139  44 142 176  51 117 140  15 117 140  20 83 141  35 83 141  50 145 176  24 75 145  62 122 143  32 122 143  31 129 144  73 129 144  24 142 145  142 145 176  62 143 146  44 143 146  23 95 147  95 147 160  13 67 148  67 114 148  17 149 182  28 112 150  46 112 150  68 112 151  22 68 151  71 119 152  37 119 152  59 120 153  38 120 153  41 128 154  41 88 154  29 138 155  51 138 155  49 133 156  26 133 156  12 64 157  66 179 180  71 169 177  48 169 177  29 107 159  49 107 159  7 87 160  47 87 160  8 77 161  8 76 161  57 114 162  25 114 162  51 140 163  34 140 163  37 111 164  37 74 164  69 151 165  15 69 165  94 166 185  39 166 185  78 131 167  4 78 167  45 168 174  99 168 174  48 127 169  48 158 177  6 68 170  6 55 170  72 82 171  22 82 171  40 125 172  100 125 172  22 69 173  22 65 173  1 73 174  1 99 174  30 76 175  50 76 175  44 139 176  50 139 176  11 105 177  11 71 177  66 157 178  12 157 178  56 162 179  25 162 179  66 178 180  39 178 180  17 149 195  17 181 195  149 182 194  52 182 194  59 85 183  12 85 183  47 87 184  42 184 188  2 126 185  39 126 185  101 128 186  5 128 186  115 141 187  0 115 187  7 87 188  7 98 188  83 129 189  31 129 189  34 80 190  80 81 190  60 191 197  60 193 197  32 122 192  60 122 192  70 192 193  60 192 193  56 126 194  52 126 194  57 125 195  57 149 195  122 191 196  91 122 196  21 191 197  21 92 197  </DataArray>
<DataArray  type="UInt32"  Name="offsets"  format="ascii">3 6 9 12 15 18 21 24 27 30 33 36 39 42 45 48 51 54 57 60 63 66 69 72 75 78 81 84 87 90 93 96 99 102 105 108 111 114 117 120 123 126 129 132 135 138 141 144 147 150 153 156 159 162 165 168 171 174 177 180 183 186 189 192 195 198 201 204 207 210 213 216 219 222 225 228 231 234 237 240 243 246 249 252 255 258 261 264 267 270 273 276 279 282 285 288 291 294 297 300 303 306 309 312 315 318 321 324 327 330 333 336 339 342 345 348 351 354 357 360 363 366 369 372 375 378 381 384 387 390 393 396 399 402 405 408 411 414 417 420 423 426 429 432 435 438 441 444 447 450 453 456 459 462 465 468 471 474 477 480 483 486 489 492 495 498 501 504 507 510 513 516 519 522 525 528 531 534 537 540 543 546 549 552 555 558 561 564 567 570 573 576 579 582 585 588 591 594 597 600 603 606 609 612 615 618 621 624 627 630 633 636 639 642 645 648 651 654 657 660 663 666 669 672 675 678 681 684 687 690 693 696 699 702 705 708 711 714 717 720 723 726 729 732 735 738 741 744 747 750 753 756 759 762 765 768 771 774 777 780 783 786 789 792 795 798 801 804 807 810 813 816 819 822 825 828 831 834 837 840 843 846 849 852 855 858 861 864 867 870 873 876 879 882 885 888 891 894 897 900 903 906 909 912 915 918 921 924 927 930 933 936 939 942 945 948 951 954 957 960 963 966 969 972 975 978 981 984 987 990 993 996 999 1002 1005 1008 1011 1014 1017 1020 1023 1026 1029 1032 1035 1038 1041 1044 1047 </DataArray>
<DataArray  type="UInt8"  Name="types"  format="ascii">5 5 5 5 5 5 5 5 5 5 5 5 5 5 5 5 5 5 5 5 5 5 5 5 5 5 5 5 5 5 5 5 5 5 5 5 5 5 5 5 5 5 5 5 5 5 5 5 5 5 5 5 5 5 5 5 5 5 5 5 5 5 5 5 5 5 5 5 5 5 5 5 5 5 5 5 5 5 5 5 5 5 5 5 5 5 5 5 5 5 5 5 5 5 5 5 5 5 5 5 5 5 5 5 5 5 5 5 5 5 5 5 5 5 5 5 5 5 5 5 5 5 5 5 5 5 5 5 5 5 5 5 5 5 5 5 5 5 5 5 5 5 5 5 5 5 5 5 5 5 5 5 5 5 5 5 5 5 5 5 5 5 5 5 5 5 5 5 5 5 5 5 5 5 5 5 5 5 5 5 5 5 5 5 5 5 5 5 5 5 5 5 5 5 5 5 5 5 5 5 5 5 5 5 5 5 5 5 5 5 5 5 5 5 5 5 5 5 5 5 5 5 5 5 5 5 5 5 5 5 5 5 5 5 5 5 5 5 5 5 5 5 5 5 5 5 5 5 5 5 5 5 5 5 5 5 5 5 5 5 5 5 5 5 5 5 5 5 5 5 5 5 5 5 5 5 5 5 5 5 5 5 5 5 5 5 5 5 5 5 5 5 5 5 5 5 5 5 5 5 5 5 5 5 5 5 5 5 5 5 5 5 5 5 5 5 5 5 5 5 5 5 5 5 5 5 5 5 5 5 5 5 5 5 5 5 5 5 5 5 5 5 5 5 5 5 5 5 5 </DataArray>
</Cells>
<PointData  Scalars="f_27-2"> 
<DataArray  type="Float64"  Name="f_27-2"  format="ascii">0.0000000000000000e+00  0.0000000000000000e+00  0.0000000000000000e+00  0.0000000000000000e+00  0.0000000000000000e+00  0.0000000000000000e+00  0.0000000000000000e+00  0.0000000000000000e+00  0.0000000000000000e+00  0.0000000000000000e+00  1.6887963582606351e+00  1.0034888459933968e+00  1.0057013443692127e+00  1.0035544400626180e+00  1.0427576704831987e+00  1.0349224773675649e+00  1.2163883736884218e+00  0.0000000000000000e+00  0.0000000000000000e+00  0.0000000000000000e+00  0.0000000000000000e+00  0.0000000000000000e+00  7.6156676957693981e-01  0.0000000000000000e+00  0.0000000000000000e+00  8.3653926186290772e-01  0.0000000000000000e+00  0.0000000000000000e+00  0.0000000000000000e+00  5.8701885555137834e-01  6.1619438153313177e-01  7.0565186329022411e-01  7.3187977196419762e-01  1.4405533623879996e+00  1.4287870482046618e+00  5.2848707900495939e-01  1.4566811437095786e+00  1.4629579773920287e+00  1.4816495987781915e+00  4.9857070413954502e-01  4.8070782102055515e-01  4.5792474370787395e-01  5.8427512030759077e-01  1.4605690775739346e+00  5.2470343013000798e-01  4.7760386979256347e-01  5.1417333560418998e-01  5.0628123131528868e-01  1.0683430699198244e+00  4.9119421576868666e-01  5.8199595357716649e-01  1.0024155452413361e+00  0.0000000000000000e+00  0.0000000000000000e+00  0.0000000000000000e+00  0.0000000000000000e+00  4.3315744727543698e-01  4.7724590853574195e-01  1.2049214827067869e+00  1.1695591656700226e+00  3.7308458892970631e-01  0.0000000000000000e+00  3.3959143237100675e-01  0.0000000000000000e+00  1.3470410561781159e+00  1.1578753848250747e+00  8.7475808621077533e-01  1.1673539263698101e+00  3.1840642242328254e-01  9.6845273437298329e-01  8.6233703610543910e-01  1.3151977510163695e+00  4.4646313241897528e-01  3.4711962593114876e-01  1.5130311505583878e+00  0.0000000000000000e+00  3.0923825874647631e-01  0.0000000000000000e+00  2.8130161044969271e-01  0.0000000000000000e+00  1.4230072908283957e+00  1.6242183523334888e+00  8.3408483774336095e-01  4.6178894658048514e-01  0.0000000000000000e+00  9.1653580906442389e-01  9.3598560907622785e-01  3.5239837009487612e-01  4.7635416247874551e-01  1.6183876386720841e+00  1.6727144116841097e+00  0.0000000000000000e+00  0.0000000000000000e+00  0.0000000000000000e+00  0.0000000000000000e+00  0.0000000000000000e+00  0.0000000000000000e+00  0.0000000000000000e+00  0.0000000000000000e+00  0.0000000000000000e+00  0.0000000000000000e+00  4.4858542975291782e-01  1.2208376371305141e+00  1.4088277486004395e+00  8.4602735205650637e-01  8.5584533433248100e-01  3.5758020838208554e-01  8.2964638933483914e-01  1.2281641149680194e+00  8.0424490893818101e-01  1.6267066510684702e+00  1.6500398017243718e+00  4.3839627669762127e-01  1.4009887225342352e+00  8.4061982744287644e-01  2.6170206942474561e-01  6.9960404926299002e-01  9.1877296891943849e-01  1.3371493090349231e+00  1.2991639990225583e+00  1.3246740848038352e+00  1.6220494483689902e+00  4.7571436688232749e-01  1.3359123111335722e+00  3.5505005928748135e-01  2.4673565199566730e-01  2.4722409412798863e-01  1.2999507012152076e+00  2.5634504553062637e-01  4.5806741464587247e-01  9.6288046507894054e-01  3.8737752558988786e-01  8.0223896787050297e-01  3.1856418795013719e-01  7.2078511616023722e-01  9.3110910880968500e-01  3.7980220474553961e-01  8.1569825612123192e-01  8.0877708090104727e-01  8.1551714012113063e-01  1.2774621148018872e+00  3.8190046596978389e-01  3.2976070901918492e-01  6.0181209442858719e-01  5.9386590252166960e-01  3.6559014232170800e-01  1.9732459947217076e-01  4.2547561223325525e-01  8.9412410709759571e-01  3.5777045122000778e-01  3.7122225579714174e-01  7.2426249565492240e-01  1.4993420447299786e+00  1.3671419078168303e+00  3.9296394975704241e-01  9.1082867519985866e-01  3.8824310928339217e-01  1.1839914294712752e+00  9.2704350939201041e-01  6.6190667619276433e-01  2.6131792115019387e-01  2.9201829943423779e-01  6.0768644795323035e-01  1.2590066741484645e+00  1.6072309906538369e+00  9.5597213101645973e-01  3.2961290089327677e-01  2.3540327812939685e-01  3.5381042782379840e-01  1.2563783004833593e+00  3.4197884422238267e-01  4.9654701516879768e-01  3.7572812692774488e-01  1.0920568935626735e+00  1.7419425565195401e-01  6.2397607652905474e-01  3.7872950577964970e-01  1.1073422876197425e+00  8.5898397404861404e-01  8.1134384514895497e-01  6.5926438006027688e-01  0.0000000000000000e+00  0.0000000000000000e+00  1.0572504504494942e+00  5.7641184122753752e-01  2.5960139547198308e-01  0.0000000000000000e+00  0.0000000000000000e+00  2.3074196338424399e-01  7.1763737873715605e-01  1.6088906169636785e+00  3.2757900618583063e-01  7.3560417584893167e-01  5.1551686002845432e-01  3.3705649701153395e-01  3.3328005651302578e-01  0.0000000000000000e+00  3.1681331739901097e-01  </DataArray> 
</PointData> 
</Piece>
</UnstructuredGrid>
</VTKFile>