<?xml version="1.0"?>
<VTKFile type="UnstructuredGrid"  version="0.1"  >
<UnstructuredGrid>
<Piece  NumberOfPoints="1130" NumberOfCells="2134">
<Points>
<DataArray  type="Float64"  NumberOfComponents="3"  format="ascii">0.2924965119749844 0.5806454640576162 0  0.2931357425666441 0.6158095738938106 0  0.2722845889387188 0.5986007514407707 0  0.06245154218797691 0.7943760977968389 0  0.05544056292684415 0.8360220202702611 0  0.02724914271240671 0.7995232918838924 0  0.1335850646589621 0.7291917770211511 0  0.09257890860895016 0.7227107754768907 0  0.1207009360036598 0.6914172198262521 0  -0.1127572484929876 0.6217075882064447 0  -0.09059232536756107 0.6461457043336694 0  -0.08244382822329682 0.6193610233350183 0  -0.1373197942797624 0.4432044140746515 0  -0.1708498639144158 0.4258289329533242 0  -0.1683718478273803 0.4550768101836 0  -0.2097608088645187 0.2706029166526365 0  -0.2553472029916841 0.2715809926304027 0  -0.2391685209522224 0.2307322500123088 0  -0.2612214313441482 0.4860827085271667 0  -0.2999268493360679 0.4942668376827834 0  -0.2761784895078877 0.5087930656610014 0  -0.6336799748740927 0.5412138273049375 0  -0.6367242063828276 0.4943077948128051 0  -0.6623691907668592 0.5109580860210953 0  -0.8189328877697528 0.4225545775266913 0  -0.7732510673161435 0.420047019447516 0  -0.7972043328982701 0.4010362957246634 0  0.09400378958013947 0.2055695036858353 0  0.1290725919584871 0.2207698374846717 0  0.1219808629418566 0.1890773044854493 0  -0.4309945018733153 0.5062643786080123 0  -0.4382089257601645 0.5497266439837095 0  -0.4119159386366162 0.5339223899750409 0  -0.6227781113910986 0.4494196041151011 0  -0.6567942943576646 0.4640171858672734 0  -0.6481157979026415 0.4373082602627743 0  -0.4712405913227501 0.1677045787871355 0  -0.5101607540755746 0.1422745461243285 0  -0.4855314936343032 0.1275817475248843 0  0.2162525383925422 0.08615652924307352 0  0.2246786184519418 0.05722134459703598 0  0.1858331413839794 0.06712133478128747 0  -0.395297655555004 0.5597085933417444 0  -0.393845571583094 0.5930343773993745 0  -0.3703409314215836 0.5744126151601694 0  -0.1732844607114084 0.7831016787925337 0  -0.2042612800303741 0.7831655859422791 0  -0.1887231468431922 0.8072354228488953 0  -0.2401164734357646 0.7642938074902216 0  -0.2007050285273371 0.7523935126534872 0  -0.2268594363809904 0.7369868775014541 0  -0.1696450233376555 0.7253721306646218 0  -0.2085138894959716 0.7108694539094691 0  -0.4304447217574816 0.7500053130336214 0  -0.4315890123179937 0.7095731294438389 0  -0.4566159372858562 0.7305137127660739 0  0.2068741599965308 0.6805917788483005 0  0.2050805379439151 0.7234446339117643 0  0.2218709634298657 0.7011057471390761 0  0.2162993597616463 -0.05864296304509958 0  0.1750354584180112 -0.06241539112817548 0  0.193720732252597 -0.0392358669981461 0  -0.0230893327402 0.1929077709269967 0  0.004761282153553419 0.1841053551365959 0  -0.0294157900699326 0.1671086648702482 0  0.1565461142119031 0.6738661189577495 0  0.1462519036200293 0.703786842447927 0  0.1808354785713632 0.6837740099682186 0  0.003584375230144248 0.8973914042388084 0  0.004168520773651397 0.9265977742636927 0  -0.02260959360525044 0.8990907582775318 0  -0.5553672154460828 0.1314190645461342 0  -0.5235028484586995 0.1112039343107129 0  0.1603091172319885 0.1987437044449037 0  0.1587220491624921 0.2266983155339805 0  0.1814480564065501 0.2139661830238536 0  -0.1528819986293607 0.1263255869844637 0  -0.1492482924853433 0.1580573615581254 0  -0.121785890413324 0.1264951045251249 0  0.06840700246376145 0.1813414697793323 0  0.05901930246285114 0.213188864059535 0  -0.1752833856350064 0.2330884014058902 0  -0.1463494540489943 0.2498979671367919 0  -0.1597540380916604 0.2128762917837419 0  -0.2666080625010207 0.8166860089768937 0  -0.2708315979539392 0.7816567174515252 0  -0.3125666401907646 0.8078345074970555 0  -0.404120413395211 0.790596968601049 0  -0.3736980272227576 0.8094398659945521 0  -0.3782485212331815 0.783550436492126 0  -0.6302032721917927 0.1842725605598824 0  -0.6662816078013655 0.1849757094845715 0  -0.6278359119408464 0.1559995968664962 0  0.04697055465782802 0.07164191122244783 0  0.03568486653295815 0.02782254432188264 0  0.07147362760462897 0.03813006809902156 0  0.07629170137027992 0.001199503106725944 0  -0.08254551195616064 0.2442760807068146 0  -0.1256264531238477 0.2318577153827438 0  -0.1100359059370774 0.2587079641700211 0  -0.2057340115688616 0.336734776516796 0  -0.1583351405483 0.3413766438249081 0  -0.1746963906066072 0.2991947239182672 0  0.2069802702871247 0.2191319025157533 0  0.2277242868701167 0.1958518940723663 0  0.2327020808785168 0.2211695803373901 0  0.08377029897187802 0.3968728637950909 0  0.09430952409275566 0.3649796683197574 0  0.1096177565212272 0.4086602604886229 0  0.1993614565197579 0.6303751881642145 0  0.2183947193733605 0.602039791860232 0  0.2244999519515443 0.6267009039980487 0  0.2603645391142563 0.6285756014906578 0  0.09969329332901172 0.7636117992424346 0  0.1302396754667923 0.7597935550942527 0  0.3054091438189218 0.7866902927858057 0  0.3357122182608844 0.7742694490625159 0  0.3340932520791566 0.8018765332110196 0  -0.3419627731396465 0.7347283846920364 0  -0.3520950571293062 0.7809111428238701 0  -0.3692699615099612 0.7343393389683085 0  -0.5840098151137766 0.2990048577514015 0  -0.6080756186142645 0.3165493008588801 0  -0.5823578507234605 0.3265486810853542 0  -0.7051763504253612 0.250234969313039 0  -0.7068111699962591 0.2244295694172429 0  -0.7307168990284388 0.2554584211146595 0  -0.4836131513794496 0.6232288808042636 0  -0.4928484342320275 0.5960519446409566 0  -0.5117044153203884 0.6291244044274967 0  -0.4409287066533773 0.6702178123895151 0  -0.4738508613963038 0.6572424830600011 0  -0.4501566366006438 0.6453775654719015 0  -0.3429952027518596 0.5223588630033167 0  -0.3206329923626178 0.5503883121993246 0  -0.3685624877363587 0.5418514467512064 0  -0.3893699539648601 0.6237039937970631 0  -0.3422033714709892 0.6265868844716567 0  -0.3644188643635339 0.6027670761648919 0  -0.6575050454237221 0.2288298014079799 0  -0.6447641122924658 0.2516770218638512 0  -0.6798884378325298 0.2427667040117376 0  0.2579067442312717 0.4688983724209494 0  0.2888513267043814 0.4378317642069166 0  0.2515399520834085 0.4316117661101545 0  0.2722069355506832 0.8284688529037881 0  0.2642325312678823 0.8678131532115284 0  0.2341417510346148 0.8335977078735048 0  -0.609195381974423 0.1346104521165029 0  -0.581512774190834 0.1459772283855625 0  -0.606311706240823 0.1720374621998764 0  -0.1137242964947925 0.7342494510189826 0  -0.1085533329295061 0.7711569775053645 0  -0.08842803878944591 0.7495212997310273 0  -0.09035277733789798 0.4919220888235711 0  -0.1387502465387686 0.4915819350525998 0  -0.1147755671194965 0.5236308404416747 0  -0.08799438577573623 0.3012994251470535 0  -0.08054411621706016 0.273239330540436 0  -0.06068658392917529 0.3120024979569823 0  -2.220446049250313e-16 0 0  0.03833101908736652 -0.01236714587332863 0  0.03332211297248573 0.1779883120077971 0  0.0553878700818049 0.1568128372514456 0  0.03879512812050209 0.1013532927181565 0  0.01956592186948998 0.06947958240077355 0  -0.3110288607107251 0.08135098352660518 0  -0.344921080983376 0.08229130413897219 0  -0.328161300472874 0.05287969798319995 0  -0.08860505921103043 0.5920506521433744 0  -0.1159536089414161 0.590966322597226 0  -0.1021964897951705 0.6788144063269812 0  -0.136261090104428 0.700646753224388 0  -0.1228430025016362 0.6531026549154566 0  0.1415956346790651 0.6023153900601184 0  0.1455023681906896 0.561880690090387 0  0.173814985803951 0.5850222891851874 0  -0.7039359164953137 0.1054244296900993 0  -0.7241549932545398 0.08547378493790607 0  -0.7240317325936491 0.1290401816176439 0  -0.7146836516968359 0.3927695373773623 0  -0.7171931948150422 0.4336007787289713 0  -0.7460250674529035 0.4301448157942048 0  -0.8336681057691238 0.345316635927459 0  -0.8219806880639507 0.3831114868492926 0  -0.8020922577552831 0.3633132148152522 0  -0.5618738577248394 0.6403651441164777 0  -0.5473882199946626 0.6849348980099506 0  -0.538289355892541 0.6573388026093229 0  -0.4824797505496254 0.3838810792864338 0  -0.5230731684421793 0.3642691414098798 0  -0.5137211790366101 0.3967288418064787 0  -0.09386743165719327 0.8868230745198202 0  -0.1334231263863611 0.8942731301668522 0  -0.1092845443900445 0.9137012029455377 0  -0.04523581318749946 0.8244439404340452 0  -0.0769396102945519 0.7908921470434424 0  -0.09343945562699482 0.8132315912754917 0  0.0455101775939576 -0.1178143478783519 0  0.07525030372245567 -0.08800061275601394 0  0.04261815316074052 -0.08518924674757319 0  0.1424349288786705 -0.03683910833544325 0  0.1406428911848698 -0.004598908502305238 0  0.1639118323293636 -0.01947543299796284 0  0.1859045193885197 -0.1024004418516471 0  0.19058579448583 -0.1427680390589207 0  0.216883382856332 -0.1337619999027692 0  -0.2373028979847076 0.5473261424768866 0  -0.1932653732436898 0.5665479687088435 0  -0.2062682446319116 0.5362814988625322 0  -0.2126522817199431 0.3845511360064228 0  -0.1866730065200072 0.3639012639806355 0  -0.4174180203574351 0.2086894809925613 0  -0.4048848604657676 0.1820574049833631 0  -0.4464806129667586 0.1834083348043779 0  -0.4568841982408385 0.1262359142486632 0  -0.4313452580001016 0.1582968730533858 0  0.07231769945658416 0.5196157514494713 0  0.03312463406788048 0.5008840041940618 0  0.06513249352082014 0.4842812410161731 0  -0.0004027730160685861 0.7771386075583826 0  -0.03905074592193825 0.7819032022368267 0  -0.02332525375120641 0.8059095547793576 0  -0.2649860329145938 0.1824261056420857 0  -0.3041191825682435 0.1773695031720618 0  -0.2803378790137869 0.1428742985583878 0  -0.2687508696165652 0.1158982906339185 0  -0.2514827659916298 0.1482915158136655 0  -0.322899042696953 0.1999682459755028 0  -0.3484887776281561 0.1655499381999704 0  -0.3515501295523116 0.2070651371825604 0  -0.3903979979922381 0.1564355708354559 0  -0.9163492829346521 0.2448659195690242 0  -0.9192152205576599 0.2847796305242293 0  
[...]
<PointData  Scalars="f_2282-2"> 
<DataArray  type="Float64"  Name="f_2282-2"  format="ascii">1.8559817314000557e-01  1.6776258415534190e-01  1.8135557899168492e-01  1.0371799038656353e-01  8.1284934503721581e-02  1.0176527254841380e-01  1.3436069927877886e-01  1.4158899188969934e-01  1.5660436161275657e-01  1.9591315565383835e-01  1.8426639113529997e-01  1.9976145866144820e-01  2.8602677642365404e-01  2.8863394267757120e-01  2.7508851109067334e-01  3.4195118561807947e-01  3.2908570598130038e-01  3.4595031037668861e-01  2.3997480578545735e-01  2.2575571365974459e-01  2.2529031335068556e-01  8.3732298792717555e-02  9.8684415073451034e-02  8.2001764818570494e-02  3.7592278986648929e-02  5.8823529307576138e-02  5.2641060820400237e-02  3.8293630934244560e-01  3.7382769232723045e-01  3.8322175023146576e-01  1.7735849815596860e-01  1.5589828038902434e-01  1.7199550104498149e-01  1.1940178803258060e-01  9.9583668766359629e-02  1.1201068700647270e-01  2.6746998013580570e-01  2.5211106601050720e-01  2.6644568629957999e-01  3.8098837179810718e-01  3.8136878886147230e-01  3.9057072064347004e-01  1.6594192156243182e-01  1.5085045587844723e-01  1.6678190140014798e-01  1.0065877117000044e-01  9.6823123997424348e-02  8.6090008755269301e-02  1.0138583308716655e-01  1.1345873755890588e-01  1.1790468547160110e-01  1.3244209891850847e-01  1.3471966894272952e-01  6.6979376318873726e-02  8.5236593945774042e-02  6.8666122355664660e-02  1.5117396596828461e-01  1.2835609301807049e-01  1.3785221591630720e-01  3.8348711154104070e-01  3.9397681416996871e-01  3.9058875939199855e-01  3.9158450426095409e-01  3.9432172949470046e-01  3.9731906168768805e-01  1.6216889562057296e-01  1.4696358537173010e-01  1.5347831618762214e-01  4.9922559525977656e-02  3.5070645918374596e-02  4.8653059011870912e-02  2.2972195259498129e-01  2.4896699948062237e-01  3.7407310686583456e-01  3.6654833738759957e-01  3.6523936502620075e-01  3.9065889782053170e-01  3.8547039109220516e-01  3.9605823646706373e-01  3.9191856060229507e-01  3.8434343326366094e-01  3.6154606638649173e-01  3.6206335965294645e-01  3.7034330428180462e-01  7.0014050655772778e-02  8.7037607001206524e-02  6.6221862458631139e-02  5.4876687659928217e-02  5.3020737342632816e-02  6.4057919119527240e-02  1.8216713589499603e-01  1.6222413506878264e-01  1.8746183273855146e-01  4.1193899682369206e-01  4.1563137841227676e-01  4.1230839254977703e-01  4.1309506624931591e-01  3.7303910594630590e-01  3.7141281035295248e-01  3.6507581484514068e-01  3.1925038488657687e-01  3.2750494026962629e-01  3.4027518825187397e-01  3.5785384389208091e-01  3.5816767225491264e-01  3.5030346615620095e-01  3.1402215478424289e-01  3.2722071118659324e-01  3.0581342903037967e-01  1.7939413293365783e-01  1.9107828439566241e-01  1.7685477899380517e-01  1.6860246379073562e-01  1.1837643181523985e-01  1.1805111001448264e-01  7.8007311011431782e-02  7.8150517366219807e-02  6.4961993354673772e-02  9.6281926461015493e-02  7.1277109350949899e-02  8.9868432207685589e-02  1.8229008632375668e-01  1.6571096969026902e-01  1.7571416971956857e-01  1.3062333865211015e-01  1.3428786803419504e-01  1.1607402393827089e-01  1.0801590835361746e-01  1.1642883334226052e-01  9.5814578768933678e-02  1.0069296774343098e-01  9.6257461340192668e-02  1.0913570165743929e-01  1.9969773388488932e-01  1.9311438286886665e-01  1.8276503395369267e-01  1.3785568314513180e-01  1.4974151370131683e-01  1.5515638065896398e-01  1.5990601688023995e-01  1.6191072521045893e-01  1.4500929700778364e-01  2.4903436817820318e-01  2.5475392069809216e-01  2.6784510010031981e-01  6.3097724647879314e-02  4.4885883005679257e-02  6.6358787915772141e-02  2.0049034990748871e-01  2.1395554940344713e-01  1.9649398083649530e-01  1.3354136596760866e-01  1.1360375177689573e-01  1.2679002522700497e-01  2.6749958903778448e-01  2.6204401568693159e-01  2.4854316104433824e-01  3.5315215566941605e-01  3.6397990984976220e-01  3.5150774309292110e-01  4.1691116313351784e-01  4.1575109905060503e-01  3.9484004276161472e-01  3.9811594688587199e-01  4.0876399830061999e-01  4.1330754066796355e-01  3.5029536857413440e-01  3.3669661128200590e-01  3.4580364334569064e-01  2.1437825036053834e-01  2.1225916662068281e-01  1.6523128533873849e-01  1.4982942898451659e-01  1.7750167970393671e-01  2.0318578160610634e-01  2.2445084893749476e-01  2.0786056520105045e-01  1.5110105406881716e-01  1.4102641970523330e-01  1.3776480897002577e-01  9.3292396007679329e-02  8.1148544434152869e-02  6.8896724206333762e-02  4.7431231155576091e-02  4.4795867121795889e-02  5.8754717423462971e-02  7.3819994950053244e-02  6.0683168738434094e-02  7.5018365672179843e-02  2.0443138998470631e-01  1.9287106652670735e-01  1.8616806054185778e-01  5.2970274582019992e-02  4.6374434007402841e-02  3.8102706455314626e-02  8.8081046098632487e-02  1.0483044944088890e-01  9.1748494044265258e-02  4.0618544461872202e-01  4.0776208348438386e-01  4.1071020364870436e-01  4.0230025446745693e-01  4.0336691547498610e-01  3.9847297812947174e-01  3.8688317679295564e-01  3.7959503348112345e-01  3.7406527032243370e-01  2.1543549882056359e-01  2.1448805275166932e-01  2.2765696183582462e-01  2.9809266800697370e-01  3.1250535247526190e-01  2.8464993622605034e-01  2.9585515271100310e-01  2.7643706635529292e-01  2.8103281032496918e-01  2.8828025997204071e-01  2.5466484870717160e-01  2.6657151220607217e-01  2.7344389693310434e-01  1.1463787601982994e-01  1.1118922946054802e-01  9.8333970699022097e-02  3.5020512156888511e-01  3.3790385901942516e-01  3.5276701519248460e-01  3.6117977495606318e-01  3.6140350347414923e-01  3.2582434037101299e-01  3.2313165744035033e-01  3.1312964131563137e-01  3.0711034870081605e-01  2.4018338285508995e-02  1.7202465198057876e-02  2.9931006223104822e-02  2.3159116084711701e-01  2.2135808605866830e-01  2.0889023806815327e-01  1.7790197765464605e-01  1.6153807744104237e-01  2.6316847101909239e-02  3.0957536253780095e-02  4.2088919436895446e-02  1.5122711344209513e-01  1.7242463502036381e-01  1.6095557904572605e-01  1.1178941163362620e-01  1.2902954637697628e-01  1.0785168210347017e-01  5.1293152466488870e-02  3.3202724293699082e-02  3.6205614888950292e-02  3.7415078000101555e-02  5.2470734941171326e-02  3.7520970143286064e-02  2.5132895098931979e-01  2.4867567373882016e-01  2.6669933596344458e-01  3.3419656455797453e-01  2.1949257392453769e-01  2.1509926610931324e-01  2.0328175576090199e-01  2.5649861656207829e-01  2.8051464510820845e-01  2.5579986460344545e-01  7.7316700230420088e-02  7.0249965534428790e-02  1.1849888087544860e-01  1.3407117510458491e-01  6.4591041511014899e-02  5.3218593912217858e-02  6.7180272712690448e-02  2.7582322954539651e-01  2.8478966162656438e-01  2.9046446209489729e-01  1.6511791063857179e-01  1.7028569120187545e-01  1.5524357562168931e-01  4.0107584249178702e-01  4.0956180277330739e-01  4.0577165215023875e-01  7.5777554359088770e-02  8.4877494062296568e-02  8.9488685536944293e-02  0.0000000000000000e+00  0.0000000000000000e+00  3.4244679909122017e-01  3.5361098323507539e-01  3.5011089078946561e-01  4.0140027372024123e-01  3.5991002326249638e-01  3.5043147985176931e-01  3.6571354347872270e-01  3.0643529600394614e-01  3.0603323111054020e-01  3.1836789362692308e-01  1.8187876218465437e-01  1.9474089908538744e-01  1.7124255023631482e-01  1.9796313755701822e-01  1.4387620361096543e-01  1.2691967336984591e-01  1.3669479733408446e-01  1.7711628215532815e-01  1.5373691816733634e-01  1.6833632691468697e-01  2.3111406452562194e-01  2.1736334017300901e-01  2.3245196765900236e-01  0.0000000000000000e+00  1.0627636408571787e-02  1.1747990670728226e-02  2.5465806654467304e-02  1.6297697892191942e-02  3.1359325212035591e-02  1.7418737304404155e-01  1.5876490156728057e-01  1.4737752747333990e-01  8.6656032292068988e-02  7.4586624669927298e-02  1.0662799161329052e-01  1.0272369636427202e-01  3.6263280476039023e-01  3.5515328517007727e-01  3.3115042219568591e-01  3.1886426695384723e-01  3.2420387057729744e-01  3.2971883959925619e-01  2.1014428489419168e-01  1.9343764243630307e-01  2.0193353049856683e-01  4.9012175752823496e-02  4.9395216534115265e-02  3.3242395355092179e-02  5.1315862800695812e-02  4.1312160692623395e-01  4.1382298307206455e-01  4.1588115500759609e-01  4.1589545046608589e-01  1.5434282963519919e-01  1.6790735303394952e-01  1.6196040893933944e-01  2.8798172738988104e-01  2.7497393248395885e-01  2.9681033421238423e-01  3.4916400641432405e-01  3.6246590394475542e-01  3.1076046894760884e-01  3.1027198596396444e-01  3.2614968662739191e-01  1.2371217223929461e-01  7.5314405623090094e-02  9.3142267307214088e-02  1.0637983663665052e-01  1.0644625160861186e-01  6.8484653876001389e-02  2.1144072455945104e-01  2.1512107788603499e-01  1.9733096883920673e-01  1.2818723351553818e-01  1.4446347290817413e-01  1.3273709630412917e-01  1.2462602327976115e-01  1.2614816821243033e-01  3.5739891866671025e-01  3.9853921268349995e-01  3.9963031277498645e-01  4.0324497384228275e-01  1.3463097283216405e-01  1.5082430612795275e-01  1.5799424623167968e-01  1.0007043203951989e-01  1.2362763001539934e-01  1.1155702937500096e-01  2.0317948560946306e-02  1.1015960253298785e-02  4.0137842152776587e-01  4.0855367838880086e-01  4.0920311540030574e-01  3.7857970222645171e-01  3.9124024560818543e-01  3.4204864957924147e-01  3.3304668959383876e-01  3.6248400215165766e-01  3.7486874793798436e-01  3.6648553639442166e-01  3.6971464931988191e-01  3.7509537015538669e-01  3.8355381649280484e-01  1.6498599967129343e-01  1.6509762108175691e-01  1.4632365256261834e-01  4.0598093043784217e-01  4.0392339997574284e-01  4.0922838943232581e-01  1.8118840707648187e-01  1.8241110777374636e-01  1.6559956469377429e-01  3.5206841168857678e-01  3.4663362759655908e-01  2.1361260992155623e-01  1.9577152405408904e-01  2.1085307790932387e-01  2.2829579066241670e-01  2.6489825140813689e-01  2.7178148770713473e-01  2.6131672817343649e-01  2.7613124722111038e-01  2.7071699553983769e-01  2.6013326496880601e-01  2.4968797226326972e-01  2.6463969442695162e-01  2.8352630745296087e-01  2.6474552622748510e-01  2.3417141020909446e-01  2.3336206538159790e-01  2.7971793625177949e-01  3.0090253461851979e-01  2.1011487607238641e-01  2.0744521177630099e-01  2.3791010754819444e-01  2.5186307662627683e-01  8.9880191817760829e-02  1.0949747908691478e-01  1.0304512145064437e-01  1.6311836826210760e-01  4.5518897850207213e-02  4.8743256936452595e-02  3.5291143349518224e-02  4.0448620400503045e-02  5.8740438735140912e-02  4.5393448367467566e-02  3.4367099436140081e-01  9.3373305103405441e-02  1.7962070423007340e-01  4.0405664484333992e-01  3.9746908787328133e-01  4.1052786109302525e-01  2.1051109616546559e-01  1.9468931955526658e-01  2.1340899245851938e-01  2.2971783892867978e-01  3.2923802948445088e-02  4.0750528928143966e-02  5.1420827827931226e-02  3.4383470687687029e-01  3.3721496821750946e-01  2.9601632512901982e-01  3.0017359936984489e-01  2.4063210281353500e-01  1.4090363629737565e-01  1.3207401552941736e-01  1.5569764395754920e-01  1.9276222350371953e-02  9.3939758277406492e-03  2.8476939263047538e-02  8.5142896943637886e-02  0.0000000000000000e+00  1.3022463141486499e-02  0.0000000000000000e+00  7.0598731087659322e-02  5.8219320799919080e-02  5.6519698726273215e-02  3.0778220697449471e-01  2.9848154951283468e-01  3.2245221800282303e-01  3.0671576901772651e-01  3.2489253634197812e-01  2.1706488849704109e-01  2.3698742658867400e-01  2.2887902987902001e-01  2.4788867946797138e-01  3.1017947022391279e-01  3.2488453199621486e-01  3.1232624993701336e-01  3.0133117156605194e-01  2.9033003978390182e-01  3.0341243643554505e-01  1.0299917250508246e-01  1.1694899066559951e-01  1.0280664601692187e-01  3.6403385452730620e-02  3.0792428049701250e-02  2.2121043783289898e-02  0.0000000000000000e+00  0.0000000000000000e+00  2.5042820276561260e-02  1.4054485921585735e-02  6.2153036542657532e-02  6.3644479708046126e-02  3.5653946777836898e-02  3.3303820485725381e-02  1.6336369007146551e-02  0.0000000000000000e+00  0.0000000000000000e+00  1.6764606990345543e-01  1.6843704141700322e-01  1.5345182800020904e-01  4.0094898733385415e-01  4.0621873138931891e-01  3.9168225405639384e-01  3.9749919726017535e-01  3.9122990532960822e-01  2.4497069512995878e-01  2.5774141886587054e-01  2.6083047278388327e-01  2.9673319404074333e-01  3.0659144165624219e-01  1.4203944129982712e-01  1.5581609243529107e-01  1.0124155197414395e-01  9.8710962899738144e-02  8.3148125187615024e-02  2.0590327399750585e-01  1.9225763456919140e-01  2.2737641313169238e-01  3.1250534713189826e-01  3.2268359928840806e-01  3.0329147081256774e-01  1.7972817292367999e-01  1.5279137898387141e-01  1.2922882496373223e-01  1.4868997358383321e-01  1.6822694594823207e-01  1.8332327495743969e-01  1.6931908867034096e-01  8.9589565955489156e-02  7.3833583265899713e-02  6.4338211920181812e-02  4.1496987017332587e-01  4.1592214412790984e-01  4.1359883076968096e-01  4.1307851563751452e-01  4.1459879323804538e-01  6.6370226703245008e-02  5.0411425159268053e-02  4.1393062904238342e-01  4.1180611386866017e-01  3.9998649071524123e-01  3.9516886651259453e-01  3.9387294811582074e-01  7.0149807037300879e-02  8.9546264900738401e-02  1.1770676121875562e-01  1.0060340520620782e-01  1.1857477642040544e-01  2.0524713306898697e-02  1.9016375954864415e-02  9.2999943781489590e-03  2.9151914756912140e-01  2.7326673340479218e-01  2.6219942802267138e-01  2.5869230645098823e-01  6.4331707883419756e-02  5.3607290775511775e-02  1.7384015636830712e-02  3.6340625841567768e-02  2.1926176191800884e-01  1.9540895414070938e-01  1.7689452956966292e-01  4.3715927230720882e-02  6.0955842281811556e-02  5.9758955475047920e-02  4.8143017006943060e-02  4.0685419286116513e-02  7.2059739776351717e-02  8.7209835428766688e-02  9.6776779127127455e-02  2.6326225675171729e-02  1.6083423688892842e-02  1.3741254243052428e-02  3.4836366661476638e-02  4.0891315686010210e-01  4.8508604543757973e-02  3.5417877627794386e-02  3.4347040000438644e-02  6.5200248677656586e-02  5.9877883303807805e-02  3.5188253198631170e-01  2.6465279579489481e-01  2.4974995140374256e-01  2.5077835942015725e-01  2.3011304608547226e-01  2.5720112855610477e-01  2.7854176494122701e-01  2.9489822347935263e-01  2.2927941587324294e-02  2.0733706846076706e-02  3.5608426332758059e-01  3.6798215833156461e-01  3.5790392176141295e-01  2.2911370509471257e-01  2.6775645294711620e-01  2.5215727950859929e-01  1.1856277776640212e-01  3.9645526460755537e-01  3.1813302657248516e-01  3.3666337151772313e-01  3.7403019562765066e-01  3.8774406284911511e-01  3.8128493877396025e-01  3.7507799859344310e-01  1.4931050120416847e-01  1.2608725935760337e-01  1.3665011704425623e-01  1.4704594325822073e-01  2.1389893100894397e-01  1.9803058776335733e-01  2.4004312300385255e-01  2.5058948790337360e-01  1.4897389614133474e-01  2.0002437305944340e-01  2.5612478867412364e-01  2.7009304378367816e-01  2.3749552917877853e-01  2.3224699835889387e-01  3.8442814582317303e-01  3.9089500549882439e-01  3.8873275020383879e-01  3.9034441287649124e-01  8.7816619803891896e-02  1.2011073272189636e-01  1.2454553127272285e-01  1.0404696940525789e-01  1.3974185170394938e-02  9.9075608782285080e-02  8.1173731365670493e-02  6.8501535087766630e-02  7.6534525410287019e-02  3.9801163307060761e-01  2.4733543188223968e-02  3.2869430945417465e-02  1.1817217790500068e-02  2.6960346311719935e-01  2.5130603012163383e-01  2.6905024552929979e-01  2.7832463300740679e-01  2.8357070360591535e-01  4.1554921323668553e-01  4.1139548060828313e-01  3.8193235044479074e-01  3.7665831158987545e-01  3.8492838340037638e-01  3.9161848182377085e-01  3.8113677362312864e-01  3.8317047494631007e-01  2.4125129230438891e-01  2.4294120870315283e-01  2.1189397681468777e-01  1.3788958365204809e-01  1.3107674786491574e-01  1.4340606511745205e-01  2.2686113994201937e-01  2.2121495274673317e-01  2.3712976558448726e-01  2.3484912578526865e-01  2.1923097309068262e-01  3.9025309481854831e-01  3.5567291446712668e-01  3.6947630067482068e-01  3.6063413831505908e-01  3.5520535619204657e-01  6.3646146551098903e-02  4.9212899717654988e-02  6.6266724483981257e-02  2.9467005330771895e-01  2.8182334966327832e-01  2.8137239645172202e-01  3.4470576680399612e-01  3.1227413803294318e-01  4.1155809615982042e-01  3.9025064222707917e-01  3.9212137935401348e-01  2.9714989369424977e-01  2.8314408928936274e-01  2.6765596775092720e-01  1.3005661187577269e-01  1.0062355528259694e-01  6.8646080255786085e-02  8.4018452029323509e-02  7.9554449412745934e-02  7.0858741384519738e-02  0.0000000000000000e+00  1.1143867057858007e-02  2.5333742169998879e-02  2.8275019861834322e-01  2.6717750961073750e-01  2.7507613571125311e-01  7.9078671999858227e-02  1.1502382199093704e-01  1.3866945661882360e-01  3.2381897630844503e-01  3.0609628243813397e-01  3.1583970938303313e-01  3.0800232001740324e-01  2.9344094084507516e-01  2.9501494735622169e-01  2.7823457638549759e-01  2.2883620625899548e-02  3.1589199453521753e-02  6.1487572477666334e-02  1.1256164398400569e-01  1.1925640199040197e-01  1.3204954943109279e-01  1.3142638628990419e-01  3.8073868536892774e-01  3.8571206604915032e-01  3.7735790014400028e-01  3.3807776105100451e-01  3.5889398452892081e-02  3.9290535270448998e-02  4.0075386391539861e-02  5.4481653213990011e-02  2.1736858417287613e-01  5.1360018402768326e-02  4.0392270149078716e-02  3.6939360548291743e-02  5.1287904119932608e-02  0.0000000000000000e+00  1.0118769779987300e-02  1.2353815625869952e-02  2.4400339372504018e-01  2.7967524303662045e-01  2.9468324995125933e-01  1.3280166863868909e-01  1.6121569155594259e-01  1.3972752346135001e-01  1.8130379909087185e-01  1.6552912087436802e-01  3.2844017412778087e-01  3.3727482981144075e-01  1.2580244960043935e-01  1.6522397820465756e-01  1.0007329922416236e-01  1.1613134798722853e-01  1.6275890343972224e-01  1.6730048939753644e-01  8.2792304377258402e-02  2.2567064955044625e-02  1.9551041139654352e-02  4.0138316697689663e-01  4.1147896780263316e-01  1.8930559227989074e-01  2.0386282604179606e-01  1.8964529059244989e-01  1.7354832007734258e-01  1.6231590947096333e-01  1.9371502499824701e-02  2.1745842626113735e-02  1.5825423944101299e-02  4.2406626557107183e-02  3.9350602086222923e-02  8.1802645273814381e-02  9.6341141804991218e-02  3.9720073141106771e-01  4.0536964455440172e-01  3.9453505410572454e-01  4.0670320585406688e-01  4.0028050485163807e-01  4.0591512248806416e-01  4.0382417010157362e-01  1.7305038747433046e-01  1.9215109021077212e-01  7.9665525456779684e-02  6.6716807156504437e-02  7.5157701695778567e-02  2.4456941366138477e-02  1.1010003049805437e-02  1.3305037304064670e-02  2.3711705946353029e-01  2.5064842767187462e-01  2.8231039407454539e-01  3.3599307964271086e-01  3.3645035852840977e-01  3.2355412691247110e-01  1.2462101887210972e-01  1.3074556937559395e-01  1.3946411261511657e-01  4.2233820801829997e-02  0.0000000000000000e+00  0.0000000000000000e+00  1.7375706591691093e-02  1.3872400768088024e-02  2.9230119859671544e-01  4.0164141256487051e-01  9.4536609677415478e-02  1.1215652250727666e-01  9.3334644420233204e-02  3.7154838821658487e-01  8.4619669706787817e-02  4.0451740407454646e-02  3.3099086959896346e-01  3.4377647399405104e-01  3.4103646025778889e-01  3.5581774582328174e-01  3.5572304919787096e-01  3.4512187429132157e-01  3.0113503969362215e-01  2.3703627542583250e-01  3.6601223529628427e-02  5.5790759749407053e-02  1.1293771399601797e-01  2.1005411361674242e-01  2.1282654563219094e-01  2.5914480778296550e-01  3.8280587330142551e-01  3.7571230599363725e-01  3.0889502183499690e-01  3.2987223051406883e-01  1.9760058507453909e-01  1.8036314623681818e-01  1.9214885298403950e-01  9.3345842627073267e-02  6.3382014850208820e-02  2.3359522025381874e-02  2.3321346871477223e-02  9.8916752175788221e-03  2.5650683743136456e-02  1.1673617157274451e-02  3.6672554900887960e-01  3.6063014705021651e-01  4.0584666270320530e-01  4.0519311886768733e-01  3.9681177798856743e-01  0.0000000000000000e+00  0.0000000000000000e+00  3.4311655418120410e-02  1.9101965294224952e-02  1.7500032419476844e-01  1.440959624