<?xml version="1.0"?>
<VTKFile type="UnstructuredGrid"  version="0.1"  >
<UnstructuredGrid>
<Piece  NumberOfPoints="785" NumberOfCells="1485">
<Points>
<DataArray  type="Float64"  NumberOfComponents="3"  format="ascii">1 0 0  0.9510565162951535 0.3090169943749474 0  0.8090169943749475 0.5877852522924731 0  0.5877852522924731 0.8090169943749475 0  0.3090169943749475 0.9510565162951535 0  6.123233995736766e-17 1 0  -0.3090169943749473 0.9510565162951536 0  -0.587785252292473 0.8090169943749475 0  -0.8090169943749473 0.5877852522924732 0  -0.9510565162951535 0.3090169943749475 0  -1 1.224646799147353e-16 0  -0.9510565162951538 -0.3090169943749469 0  -0.8090169943749476 -0.587785252292473 0  -0.5877852522924732 -0.8090169943749473 0  -0.3090169943749476 -0.9510565162951535 0  -1.83697019872103e-16 -1 0  0.3090169943749472 -0.9510565162951536 0  0.5877852522924729 -0.8090169943749476 0  0.8090169943749473 -0.5877852522924734 0  0.9510565162951535 -0.3090169943749476 0  0 -1.110223024625157e-16 0  0.4510565162951535 0.2298247742126793 0  -0.07919222016226819 0.5 0  0.4217401972019558 -0.2701752257873207 0  -0.4664690173352599 0.1823899734948475 0  -0.3579604780797941 -0.3579604780797938 0  0.08947756573959761 -0.564939116217821 0  0.2920115546147195 0.5731049448157398 0  -0.6379736825905938 -0.1331202236553083 0  -0.5008003933374412 0.5008003933374412 0  0.6995191145456661 -0.1107929434536306 0  0.142039521920206 0.2787682579175257 0  -0.3334887362273707 -0.6545084971874736 0  0.1245525093718384 -0.2698283057066694 0  0.394121195831843 -0.5736904951771631 0  -0.3634291792402099 -0.07798855321373677 0  -0.7398752304198022 0.1266395525571908 0  0.5513406906673669 0.5513406906673668 0  0.06772072383772594 0.7330026833223602 0  -0.1798257626464556 0.2277898049615374 0  -0.1329363554971779 -0.2250241225826161 0  0.2899847546250717 -0.01159061002844763 0  0.7178334616361693 0.1634954202353548 0  -0.185558029016192 0.7298829572732783 0  -0.5575821515891235 -0.5237174003589158 0  0.6636796672438613 -0.3700844779107332 0  -0.1473869834727682 -0.4898672660924318 0  -0.1245776731282009 -0.7865524724078699 0  -0.7047576755565585 0.3676611205918164 0  -0.7200632558821398 -0.3535872110403818 0  0.1059826075223748 -0.795065377569524 0  0.8800367553350505 0.4484011233337103 0  0.623199147317663 0.3525294878401746 0  0.5129820594521588 0.01406716385861899 0  -0.2901427146123197 0.4232796753639339 0  0.6984011233337102 -0.6984011233337104 0  -0.4012649964410931 0.6952739930058706 0  0.2729833322899929 -0.4096530452196732 0  0.3012581447838918 -0.7510272980442365 0  -0.8137027520495476 -0.05218979815199046 0  0.4331943037813432 0.6994662051624437 0  0.4096672220709169 0.4191323268585566 0  0.1043321860738427 0.5471012642541169 0  -0.1964715282981352 0.02977353470457396 0  0.2552131475805349 0.7680603542530016 0  -0.5388598112947428 -0.3431837635368604 0  -0.5797382542202413 0.03959248166636803 0  0.009584998068538048 -0.4058038127633932 0  0.1545084971874738 0.9755282581475768 0  0.4973115362790197 -0.4300662553549759 0  0.5658689724588636 -0.5882049478260758 0  0.2422046756816651 0.4131071900577793 0  0.7836508779194769 0.3146499317110243 0  -0.1545084971874736 0.9755282581475768 0  -0.06024135378981482 0.8388279256599832 0  0.8224179041086225 0.01875666381115074 0  0.9755282581475768 -0.1545084971874738 0  0.1492029128681321 0.09954782333993309 0  -0.007766320725004716 0.1830271833708655 0  0.3053451802085407 0.1526019885243211 0  -0.008583573074307321 0.3493769050054867 0  -0.2248586819964352 0.5721497532038938 0  -0.6984011233337102 0.6984011233337104 0  -0.6608599644184795 0.5232054702963955 0  -0.4379831721234783 0.3465173839916844 0  0.78947533516742 -0.2553493950128032 0  0.5377785018220788 -0.1506580215248616 0  -0.4377018126721021 -0.2194786956927773 0  0.9755282581475768 0.1545084971874737 0  -0.8135818870758709 -0.2173971224509217 0  -0.8800367553350507 -0.44840112333371 0  -0.8800367553350504 0.4484011233337104 0  0.8800367553350504 -0.4484011233337105 0  -0.6984011233337104 -0.6984011233337102 0  0.6984011233337103 0.6984011233337103 0  -0.4484011233337102 0.8800367553350505 0  -0.4484011233337104 -0.8800367553350504 0  0.1545084971874735 -0.9755282581475768 0  -0.1545084971874739 -0.9755282581475768 0  -0.9755282581475768 0.1545084971874738 0  0.4484011233337103 0.8800367553350505 0  0.4484011233337101 -0.8800367553350505 0  -0.9755282581475768 -0.1545084971874734 0  -0.3127199235709721 0.1392534573254163 0  -0.005479567850930206 -0.6874046165737091 0  0.2732479409242113 -0.1829771259830817 0  0.1418810278893715 -0.0836379635813527 0  0.004538992852202391 -0.15446060603175 0  -0.2853499925602263 -0.2239500765044786 0  0.4567744071463516 -0.7194815091863737 0  0.2407354298475123 -0.6063519260829316 0  -0.6189916801537911 0.2320956117698647 0  0.6914879155064673 0.4896037129438954 0  -0.1790968367221579 -0.6415245347002975 0  -0.3212528653011592 -0.8027825067413136 0  -0.4953997049317194 -0.6745488295647377 0  -0.3019794247314472 -0.5026245467723092 0  -0.5503379494258648 0.6488635672452867 0  -0.1526806950398258 0.3736888875971234 0  -0.3677221816356187 0.5553972409288912 0  0.4114570176646632 -0.08544454673099088 0  -0.3115221870742588 0.2814617094129646 0  -0.5055096840583726 -0.08161026592659262 0  -0.4207091841266609 0.04992126597993612 0  0.8394524656852788 -0.1204728868496304 0  -0.8092094227335564 0.2598108991006964 0  0.323275210824397 0.2948523260610789 0  -0.01235717006850368 0.6206762832191056 0  0.5723120307309651 0.1478612873198991 0  0.6584453108854001 0.0296143784812711 0  -0.1127073123157568 -0.08060902155425154 0  -0.3263472417314189 0.8127807834423398 0  -0.5693189598496932 0.3829729594944991 0  0.1787115426866188 0.6583053932958268 0  -0.2086945469431951 -0.3537063371349133 0  0.1413875674469653 -0.4006527365317505 0  -0.8825665179032465 0.06059258382501253 0  0.644423923763579 -0.2353002930398254 0  0.6873112429813564 -0.5116720902927442 0  0.5622403797493952 0.6812145165111156 0  0.4206022107082307 0.5494267599564201 0  -0.6985923484076459 -0.4957346960056245 0  -0.4275853811955493 -0.5583578671446736 0  0.1085975446525227 0.4135614629143593 0  0.8462315462026486 0.146118149748369 0  0.0718775524803872 0.8683064513691334 0  0.2157671749860278 -0.8623003278851888 0  -0.0009650574677971344 -0.2802933617576216 0  -0.6918203030037906 -0.01878988057032068 0  -0.2381679848617855 -0.08884164997446616 0  0.423770719651625 0.1052277906161352 0  -0.04008614995957274 -0.5625247949542947 0  -0.1838372862262216 0.8544504343113826 0  -0.06228883656410056 -0.8932762362039349 0  -0.2167973337515742 -0.8688044943515117 0  0.5422127886147651 -0.3110393647923049 0  -0.08715913041914175 0.08797997509234301 0  -0.4554204244795622 -0.4363932914340152 0  -0.8358691411028879 -0.3329048731086893 0  -0.696161304464804 -0.2369706844702208 0  -0.5584023614893824 -0.2239903645074836 0  0.1899841503682763 -0.7125800017390629 0  -0.7645428941125212 0.4685002778378229 0  0.06385263338978434 -0.9031496607807421 0  0.1885230304214117 0.8638639632561416 0  0.7840064636769384 -0.375682112498297 0  0.20078000365488 -0.4988085223509479 0  0.3065188648271355 -0.2963540786387833 0  0.3818589112326135 -0.4559984283196847 0  -0.3101348374984462 0.02265782905399914 0  -0.09274097508423339 -0.3512064167914866 0  -0.6034356931010622 -0.6308547114517774 0  0.5306709666442585 0.4314779253418129 0  -0.04412882481905579 0.7280335190386622 0  0.368139879099501 0.7958703882135997 0  0.5664333444162233 -0.6996425847768714 0  -0.6116455351171063 -0.4268731036572567 0  -0.4025747561849136 0.4508638281790917 0  -0.2867957698889448 0.6713445967088895 0  -0.4986338823410387 0.7454077904527141 0  -0.1197223386227034 0.6012931190607056 0  0.6019841841703942 -0.0631137624285925 0  0.4793630357317586 0.335191930278104 0  -0.4057080951926841 -0.7351100538182147 0  -0.2500487025609878 -0.7222647261547557 0  -0.5202389861383073 0.2762579513581566 0  -0.004903510438664035 -0.7983375068467664 0  -0.8677303216271283 0.1682446337113246 0  0.9632923872213652 -0.2317627457812107 0  0.6359382133354268 0.2407019555277372 0  -0.1954327480994572 0.4704960404955171 0  -0.09318292723014725 0.2871443445734201 0  0.6543968779059033 0.5953449360951739 0  0.5860085732792212 -0.4855437761655895 0  0.02433540313127336 0.477708088704549 0  0.2050327353918737 0.1915327024870737 0  0.3019600516521567 -0.5224112525625693 0  -0.4559197183044352 0.6082074424089278 0  0.9877641290737884 0.07725424859373685 0  0.8445268748549989 -0.5180931878130919 0  -0.7537090588543289 -0.6430931878130917 0  -0.8115083307004233 0.366542657984397 0  0.9877641290737884 -0.0772542485937369 0  0.3157389177020913 -0.8506306959163319 0  0.3661954416712823 -0.6720495099691162 0  -0.2110888953948772 0.1307100872489919 0  0.2771278415803478 0.671246208704549 0  0.7755166821205643 0.4221168689217691 0  0.09258535306910454 -0.6974063904331503 0  -0.5180931878130919 -0.8445268748549989 0  -0.5636233828952756 0.1431321340909777 0  0.2093668298544761 -0.3254094489515746 0  -0.7452216441755674 -0.1347434040272279 0  0.3432419291961207 0.4903131612096761 0  0.9632923872213652 0.2317627457812105 0  0.8654704589902047 0.2558653845079852 0  -0.7721646645307192 0.03531578018689553 0  -0.9877641290737884 -0.07725424859373664 0  0.3972451269157145 -0.7968729007064921 0  0.2047656419391337 0.5125131148681941 0  -0.7107486842465451 0.2689580543411794 0  -0.8747057134039039 -0.1348381340198916 0  0.9075822029513861 -0.02495856901956285 0  0.4175383422250996 0.009896499472273557 0  0.1611803648706316 0.7520641323258265 0  0.293383900196892 0.8562452162748729 0  -0.9632923872213652 -0.2317627457812101 0  0.4226327034146973 -0.3675580274712185 0  -0.6211574309532173 -0.2954782403839667 0  0.5073765864410278 0.7586347332656206 0  0.3688379632316558 0.6293192053628369 0  0.484958551257918 0.6195737597560269 0  0.08576045253602423 0.639999587219085 0  -0.8445268748549991 -0.5180931878130914 0  -0.7797212151374868 -0.4352936457408597
[...]
<PointData  Scalars="f_1261-2"> 
<DataArray  type="Float64"  Name="f_1261-2"  format="ascii">0.0000000000000000e+00  0.0000000000000000e+00  0.0000000000000000e+00  0.0000000000000000e+00  0.0000000000000000e+00  0.0000000000000000e+00  0.0000000000000000e+00  0.0000000000000000e+00  0.0000000000000000e+00  0.0000000000000000e+00  0.0000000000000000e+00  0.0000000000000000e+00  0.0000000000000000e+00  0.0000000000000000e+00  0.0000000000000000e+00  0.0000000000000000e+00  0.0000000000000000e+00  0.0000000000000000e+00  0.0000000000000000e+00  0.0000000000000000e+00  1.7192767489166920e+00  1.1008125266615671e+00  1.0972512189202976e+00  1.1050045947436451e+00  1.1086668672355091e+00  1.0981419688239913e+00  9.4966804435695373e-01  7.9042207163548450e-01  7.6296270796627064e-01  6.3132221783428843e-01  6.2818990432850330e-01  1.4664289907869346e+00  5.7382352405692572e-01  1.4833152303055024e+00  6.6354184182704834e-01  1.3641852841453836e+00  5.3399345066346549e-01  4.6091803083869942e-01  5.7079218288163358e-01  1.4954935823874922e+00  1.5353283029787574e+00  1.4964393994135687e+00  5.6522170927862336e-01  5.3439832369167395e-01  4.9883430897420938e-01  5.1001273794826318e-01  1.0814171178563816e+00  4.2972201085149953e-01  4.2633677480327448e-01  4.2371780922756935e-01  4.1146496385312792e-01  0.0000000000000000e+00  6.1852135229422978e-01  1.0851242737658848e+00  1.0844322043835708e+00  0.0000000000000000e+00  4.2137781462939278e-01  1.1260509320038283e+00  4.0049197791089775e-01  3.8736413500842937e-01  3.7199097462056824e-01  9.2014887188749328e-01  9.9056649864071922e-01  1.6116445784121007e+00  4.0121681453944097e-01  8.0073644989002712e-01  9.3466492295958148e-01  1.2982036455693218e+00  0.0000000000000000e+00  7.5809281466933287e-01  3.9608406318951817e-01  1.1538787978598828e+00  3.1926497175703011e-01  0.0000000000000000e+00  3.2828731544194434e-01  3.6673140875744809e-01  0.0000000000000000e+00  1.6295467871998983e+00  1.6296133166996760e+00  1.4174085875430593e+00  1.4031125114862211e+00  8.5761846708603451e-01  0.0000000000000000e+00  3.2446729039151662e-01  9.8631311397043564e-01  3.5144470366510405e-01  9.8099538930229302e-01  1.1334814136294376e+00  0.0000000000000000e+00  3.2451296197160490e-01  0.0000000000000000e+00  0.0000000000000000e+00  0.0000000000000000e+00  0.0000000000000000e+00  0.0000000000000000e+00  0.0000000000000000e+00  0.0000000000000000e+00  0.0000000000000000e+00  0.0000000000000000e+00  0.0000000000000000e+00  0.0000000000000000e+00  0.0000000000000000e+00  0.0000000000000000e+00  1.4130200571168865e+00  6.8473933469699577e-01  1.4335579212651597e+00  1.6454411991396962e+00  1.6518729902191354e+00  1.3797920740861178e+00  3.0108059035921914e-01  7.6623794126187161e-01  7.5082403593044844e-01  3.1559281489955932e-01  7.3534597617346087e-01  2.7223187335586263e-01  3.4185148290399997e-01  9.1900855533828762e-01  3.0278902892029630e-01  1.3056241689517110e+00  7.3183331726606415e-01  1.2757626227506624e+00  1.2761018570931151e+00  1.0882629559822470e+00  1.2670371256204493e+00  2.9746192081523615e-01  3.0043434606976221e-01  1.2371803859013055e+00  8.4253992250518861e-01  9.1234667043388984e-01  7.5359683379784037e-01  1.6673718141270992e+00  2.4229399718621197e-01  6.8534314526998408e-01  6.9434050968585570e-01  1.2901972689917305e+00  1.2615724221250244e+00  2.1927685151777490e-01  6.8881044475876452e-01  2.9623886961658868e-01  2.3175250904874692e-01  6.7593506779443524e-01  2.9155817005625873e-01  6.5087721426217404e-01  1.2596903125191397e+00  2.7834972262715246e-01  2.6137880917161033e-01  2.1463659437005783e-01  1.5067640388990040e+00  6.7813486140235468e-01  1.5473626840516470e+00  1.2426158375661818e+00  9.6863791126403509e-01  2.5029760302993292e-01  2.0951043696590890e-01  2.0458396235673876e-01  8.2632743362812378e-01  1.6778931710776464e+00  8.1937494686203982e-01  2.0012647433654288e-01  5.6956602442930926e-01  8.8368682406750299e-01  5.6760803590806852e-01  2.0208658164916457e-01  1.8287319041478731e-01  2.3124183223703740e-01  2.5249278618060672e-01  1.0264129535097413e+00  1.2570336232970412e+00  9.0429265168223039e-01  1.4640819799652809e+00  1.3748351461415009e+00  2.4768106215308516e-01  6.9296061501152084e-01  5.8794672090200983e-01  2.4716454185269135e-01  1.9753522694379461e-01  5.4706184635628619e-01  8.8053627060219730e-01  5.8808645113353064e-01  1.9992067944100858e-01  8.5712123937954265e-01  8.7300942394731118e-01  9.2963937117701367e-01  3.3517555682328959e-01  5.1076345932722922e-01  9.1626059027501272e-01  4.2203631689755045e-01  2.1968468585662906e-01  0.0000000000000000e+00  7.0191554488326124e-01  1.0945176246760402e+00  1.4783303345282186e+00  2.2283994382226693e-01  5.1560835226424928e-01  1.1613294909070722e+00  1.5123749483760223e+00  8.7939944399110792e-01  5.1720909446110019e-01  0.0000000000000000e+00  0.0000000000000000e+00  0.0000000000000000e+00  2.0348725069462040e-01  0.0000000000000000e+00  1.8065033071350262e-01  4.9959684394431925e-01  1.5534194077010635e+00  5.9939181992164259e-01  2.2396501822019346e-01  6.4660660126524827e-01  0.0000000000000000e+00  9.3191853321895113e-01  1.3337966873858766e+00  5.1973799120897335e-01  8.9079206121932220e-01  0.0000000000000000e+00  1.8604907768928344e-01  4.7969320922216829e-01  0.0000000000000000e+00  2.1786226525599922e-01  9.9565885618346039e-01  5.1157747696923883e-01  2.1452856194623465e-01  1.7753608267472484e-01  1.2802010199533342e+00  4.9063505764197207e-01  1.8894646826748934e-01  0.0000000000000000e+00  9.7829730116972857e-01  6.9172637269712334e-01  1.7508854841179600e-01  5.9311221832483751e-01  4.5550294293457749e-01  7.8222772744830993e-01  0.0000000000000000e+00  2.0383697683499669e-01  0.0000000000000000e+00  2.0737234675554109e-01  1.6095499286883246e+00  8.9806181700853616e-01  8.8210814873334298e-01  1.1564109294083746e+00  2.1694984732255237e-01  1.2548885291755951e+00  1.2751142375988818e+00  1.6210292633670222e+00  1.6940787726562621e+00  1.6823327560397445e+00  1.5921270928744500e+00  1.5355452379649579e+00  7.5753671492904828e-01  8.7994511986207469e-01  1.3293033506541823e+00  1.0091216355196106e+00  1.7115178938123071e-01  7.7333184655679743e-01  2.0478137987704742e-01  4.3861614924020909e-01  0.0000000000000000e+00  7.7579790773756307e-01  4.7609521449091247e-01  4.9222757419475854e-01  1.1164426880988185e+00  1.2249342138291319e+00  1.4118157367699846e+00  1.6032581456924733e+00  1.5260008082348351e+00  6.1862834240337106e-01  4.5578244507040228e-01  6.6511713782890469e-01  1.3995457412259171e+00  1.8102315764049715e-01  1.1131036594217101e+00  2.1560663935622290e-01  2.0533396362156422e-01  3.9100270772366102e-01  5.2329778694093931e-01  1.1169090482900610e+00  1.2840235444360153e+00  1.5155648656619081e+00  1.4291612900615882e+00  1.5553632218438385e+00  1.5228950030380444e+00  0.0000000000000000e+00  1.7068510565783199e-01  1.9224276973607352e-01  4.8897932590672921e-01  1.0882938055979539e+00  1.6955241803643688e+00  4.9239508002933979e-01  5.4256402938486592e-01  0.0000000000000000e+00  0.0000000000000000e+00  1.0615508491972654e+00  1.5418363862917919e-01  0.0000000000000000e+00  4.2651476039407865e-01  1.2794045612205887e+00  9.4002402163542065e-01  2.0501438367836841e-01  7.8811889209315267e-01  1.1057186286149512e+00  1.0974945859180001e+00  7.8867238005752505e-01  9.9610105633446933e-01  1.2819569004970184e+00  4.2248636186038868e-01  1.8185029421866122e-01  4.3880973180523619e-01  1.4240159483642632e+00  2.0514984512016479e-01  1.5025740053951411e-01  3.8878491283806837e-01  5.0933749468961242e-01  1.2594568389142851e+00  1.6953576696704777e+00  0.0000000000000000e+00  9.2025573862083643e-01  5.5575078091911234e-01  0.0000000000000000e+00  4.2303938764977556e-01  5.0108849457099858e-01  4.2710030887468520e-01  9.2004319457249695e-01  7.1498657365694152e-01  6.7623321948164061e-01  1.0930913519676555e+00  1.2363849662473096e+00  1.5723768825045548e-01  3.8315353446952699e-01  7.2208994120209047e-01  1.1020404383282325e+00  0.0000000000000000e+00  1.4063641257764823e+00  6.2144796650050660e-01  6.3228653001857738e-01  1.1909979263428128e+00  1.2098838846229329e+00  1.4439180243779930e+00  1.0856489820454105e+00  1.3934207680568439e-01  4.3244078573695899e-01  1.7413765910608453e-01  1.7746385116145003e-01  3.7664704874465310e-01  1.3861854760107004e+00  0.0000000000000000e+00  5.8449506934583495e-01  7.0574514822625012e-01  1.5777074662796095e-01  6.9721836982987495e-01  0.0000000000000000e+00  0.0000000000000000e+00  0.0000000000000000e+00  0.0000000000000000e+00  0.0000000000000000e+00  0.0000000000000000e+00  0.0000000000000000e+00  0.0000000000000000e+00  0.0000000000000000e+00  0.0000000000000000e+00  0.0000000000000000e+00  0.0000000000000000e+00  0.0000000000000000e+00  0.0000000000000000e+00  0.0000000000000000e+00  0.0000000000000000e+00  0.0000000000000000e+00  0.0000000000000000e+00  0.0000000000000000e+00  0.0000000000000000e+00  2.3960278576505659e-01  1.4438582327355218e-01  1.0368351055603919e+00  1.1529149691289600e+00  1.0655159798571514e+00  7.6672099997300702e-01  8.0969411468970220e-01  5.4913257790928982e-01  6.1246774876864518e-01  1.2893605513955853e+00  1.0764203516049018e+00  9.2205993909611472e-01  1.6313086655942985e+00  1.6983293544759783e+00  1.6900570750374314e-01  1.2878576445875765e+00  1.2699541817956459e+00  1.4181863858391075e+00  3.8562481007432409e-01  1.3940575655492022e+00  1.0003651929942541e+00  1.6875460615505244e-01  3.3897781365571678e-01  3.9546343642277065e-01  1.2466953308233740e-01  4.3532523227079034e-01  1.3983790356234596e+00  8.3389345245110547e-01  1.5600476721189040e+00  1.4364670659692746e-01  9.8569266764065522e-01  1.3660806064955880e-01  1.5861522082093016e-01  4.0294384637238917e-01  4.1686096655785931e-01  1.5284141293911386e+00  1.2986793763888604e+00  6.4799482694789157e-01  9.9994976669610280e-01  7.3619279018118977e-01  7.2171988722220493e-01  6.6029731267698832e-01  9.3610009325550558e-01  8.3363057985663069e-01  1.6319940119230283e-01  1.5651748298405959e+00  7.7932151306383390e-01  1.5397555157352086e-01  2.1441528317695965e-01  1.4088662805522474e+00  7.4961565101788574e-01  5.9576821647928802e-01  6.7897681855687864e-01  3.7402594319524107e-01  4.0498528336555728e-01  3.6126629832976132e-01  3.6150015950094749e-01  4.4813032187753815e-01  3.5256720115839008e-01  1.6625495918326605e-01  5.5993021229134132e-01  1.1516984249705262e+00  1.3801428188319242e+00  9.3012933025240985e-01  3.5587573963976121e-01  5.6203248365385738e-01  1.6996224074764084e+00  4.7100962285530967e-01  6.4119896891352179e-01  5.2864501283345955e-01  3.8070425359112853e-01  1.0047169129735962e+00  9.0908407306396888e-01  1.3246746382005408e+00  8.9934935356364754e-01  1.3610098519647633e+00  1.5427660184909449e+00  1.2547227879423339e+00  1.6244635172490116e+00  7.2921986804080074e-01  3.2243614213779198e-01  9.5934891265052513e-01  6.8597645040118749e-01  8.0876288573307842e-01  1.5489969172536497e-01  3.2304751173367185e-01  1.3882147375645995e+00  1.1921010245778507e+00  5.4506151035058248e-01  8.5570128321445316e-01  1.1322213411583546e+00  6.8089292223282749e-01  1.3447618598914632e-01  1.3731153957536020e+00  1.1815770939045394e+00  1.0731403015141687e+00  1.3825536821953990e-01  6.6449601709533679e-01  1.6012006184357910e+00  5.7833355866514957e-01  8.3967685107484913e-01  6.4847039716882005e-01  5.5259758746164300e-01  1.4944249560321102e-01  1.1224920275366415e+00  1.3228533178050821e+00  1.5985821208962117e-01  1.5371625611143475e-01  1.9848014606005249e-01  1.5478361380512675e+00  1.5361004045901911e+00  9.5934436888463370e-01  1.3588875924660510e-01  1.3389809139440989e-01  3.4950242168517659e-01  7.7716188108546380e-01  1.3759089582228123e+00  1.2239735241161209e+00  1.2466252619053246e+00  1.2020584875466824e+00  1.3699724995622781e-01  1.3098294152252560e-01  1.6177289309545637e+00  7.2600283206487159e-01  5.7830934756134378e-01  3.8095451846979472e-01  1.1008493642104827e-01  3.2381011414858407e-01  7.6916571111083709e-01  1.4523459168236530e-01  1.1225760079633897e+00  8.2981492965763759e-01  9.7055018805835325e-01  1.0802362967803651e+00  4.2912940985287884e-01  4.4831031512762726e-01  5.2762031719089730e-01  3.8718758184962093e-01  4.6479141656983769e-01  1.3597645396644933e-01  3.2026451708725584e-01  1.1401958243597166e-01  3.7230143727036741e-01  3.9678242550393034e-01  1.0522197287140359e-01  9.3991675287058973e-01  1.4581231474061365e+00  5.4094910861084322e-01  9.8996414014635978e-02  1.1582574044116953e+00  8.0031226720604498e-01  6.7446280864635910e-01  1.2910835566742165e-01  6.6097466555211160e-01  1.5537423059608590e+00  2.6877592149857571e-01  1.2766389100952388e-01  1.0311072743973157e-01  7.6404377686481439e-01  3.3230341996300000e-01  1.3891971960875351e+00  1.4089661023531348e+00  8.8057052143719983e-01  3.4049871909834717e-01  3.8323522085036332e-01  1.4769750770457539e+00  7.3655485159086964e-01  7.5086473372851281e-01  8.5328379759046846e-01  9.6140878533131213e-01  4.4709461775084935e-01  7.6138216871186082e-01  1.1033847932881732e-01  1.4343688411463465e-01  1.1775828020786641e+00  1.3447471663726906e+00  1.4390054870441544e+00  1.6536195059591183e+00  1.6597243804925059e+00  1.1568116289350973e-01  1.3805515553280695e-01  3.4168890652213396e-01  1.0254416610097378e-01  3.5014099088733225e-01  1.1879941169565389e-01  1.2898844335886978e-01  8.1638062504053410e-01  1.6600095452924402e+00  1.5137048823225197e-01  1.4466016002206666e-01  8.3633931700253550e-01  6.1324387914356715e-01  8.2557967281499656e-01  1.2063110005982967e+00  1.0324524744672114e+00  8.6387232769589639e-01  2.0642879963916488e-01  1.7006436193219063e+00  7.2793794617487839e-01  3.5583389188469733e-01  1.4620209679517032e-01  1.3339447337373025e-01  1.0685538726996504e+00  1.5897655205423893e+00  1.3551391520537686e+00  3.1542707726697100e-01  1.2920335298719785e+00  5.0007071924331326e-01  4.5531905079983837e-01  6.7127673146158062e-01  4.6979404021839971e-01  4.4481477703058753e-01  7.6751630111480951e-01  9.8279519534671911e-01  1.0363471177522989e+00  8.4372049501067414e-02  1.3809811419751422e-01  1.1883168208504020e+00  8.5998186269801624e-01  1.4354451144752267e+00  1.0058879544330421e+00  3.3886670767015487e-01  6.4960453043452626e-01  4.9578914180275963e-01  2.7587802356524904e-01  8.9463228583242155e-02  3.0369926952059301e-01  1.1942758014118517e+00  4.2787812448134521e-01  1.4878317567095042e-01  1.3105948144632824e+00  1.4280924899814884e-01  4.3759331170669247e-01  2.8741852472072144e-01  1.1451517011986072e-01  5.9222140055318462e-01  7.1555288440719578e-01  1.1103095449240166e+00  2.8624308643010599e-01  2.6953775473941249e-01  1.4039257426779625e-01  3.0144709872876402e-01  3.8995543469367044e-01  2.7106399697812900e-01  5.5279548917216093e-01  1.5843030285132584e+00  3.6424452231744864e-01  1.3858438977977691e-01  1.3437279446859283e+00  1.4274045748372083e-01  1.5957443537485076e+00  1.1517525344098185e+00  1.2129595341515880e+00  1.2392521954808151e-01  8.1088336415744167e-01  3.6923473341343016e-01  1.0093435938932858e+00  9.8202349191787686e-01  1.2671379530236851e-01  1.1466015632122675e+00  8.9526374223755023e-01  1.6014749015733770e-01  6.6464900311724151e-01  1.6752552438291759e+00  1.3534983072183289e+00  1.1754369558659120e-01  1.5206123877000133e+00  1.0854079557222404e-01  6.7192892155189143e-01  1.1803833128183299e+00  1.6856358665682747e+00  2.6983244735880008e-01  6.0509033898770570e-01  1.2213808904396713e-01  4.6504980216833369e-01  4.3463510118923926e-01  2.5439650991728047e-01  8.0709115675741974e-02  2.8486638503078165e-01  2.9869231832145254e-01  1.1722775305906283e+00  1.4506955772464787e+00  4.2850797962564802e-01  5.6997633526260327e-01  6.8162082244567557e-01  1.0487261363711575e+00  6.2278693386904393e-01  5.0645034292479307e-01  2.7271243080808494e-01  1.2846408872977372e-01  1.6129744237906884e+00  2.1736433858142065e-01  1.4760433162994060e+00  9.4712311300392316e-01  1.6684698051269107e+00  9.7796069459933399e-01  7.6782007400423624e-01  8.1533678317185554e-01  5.5546992467749656e-01  1.3558020149149033e-01  9.8195960018453113e-02  2.8325953854909930e-01  1.0317322267092106e-01  6.6482359359693877e-01  8.8596250875085869e-01  1.0214015176810540e+00  9.3234120396319731e-01  7.9556877449815211e-01  8.7721020273238537e-01  0.0000000000000000e+00  2.3976836021768588e-01  2.4266694094412644e-01  2.9562204304120804e-01  7.6460631387044564e-01  1.3379273762678312e-01  1.0136572708824365e+00  3.0008804206948697e-01  3.0163996173614666e-01  4.5701404182750904e-01  1.0050819799819950e+00  4.6673297992261842e-01  5.3947649149778887e-01  9.6284306555121368e-01  1.0598519246043512e+00  2.5750942630994705e-01  2.4149743201234594e-01  1.5529120955779425e+00  1.5815693984538004e+00  1.4775688551523576e+00  1.5637587320663002e+00  9.9466727927003940e-01  8.1245394039836327e-02  1.5995116359526795e+00  1.6535095273752447e+00  1.6690595378808490e+00  1.6386135785607234e+00  4.0759583448672981e-01  9.9467992939541849e-01  1.1182754779701184e-01  5.9540128219701194e-01  1.3876229703806393e+00  2.5397767031315660e-01  2.6635833459918057e-01  8.1263978119400493e-01  8.6613127496349662e-01  8.8289165869914088e-01  3.0448017488273055e-01  6.2858498783745809e-01  1.0658658122582707e+00  1.2214828568902651e+00  1.0381464172838586e+00  9.6535416307347799e-01  5.6831554533230000e-01  8.2060250074326352e-02  7.8398574639463081e-01  3.9384059771399876e-01  2.3778473959797305e-01  3.5721832994943720e-01  1.1858962301539364e-01  1.3936482146350797e+00  1.5067681674192452e+00  0.0000000000000000e+00  1.0729798824025788e-01  1.2291986927565723e+00  9.6783132667047045e-01  4.0430138337231919e-01  1.5688329462497144e+00  6.5399231965307669e-01  1.4667341374040828e+00  5.6907260063638310e-01  4.7410115957136117e-01  4.8577585436363019e-01  1.5131902315248951e+00  8.2910805591062919e-01  1.4845197977622711e+00  8.6884054008208644e-01  5.3287430052992912e-01  5.1779580730473773e-01  4.5468660486975920e-01  1.4910838829377400e+00  2.9722231000928712e-01  7.7465680283506833e-01  5.6488049590391287e-01  1.6614403844632151e+00  5.9289692216575751e-01  1.7048299769798099e+00  1.4214197296721554e+00  7.2086226880757109e-01  6.6849001646665329e-01  1.4922356170727815e+00  8.2467531604618477e-02  7.8037278996884429e-01  1.5650676399968351e+00  1.6368040280694580e+00  4.6748502138276382e-01  1.3205614503399993e-01  1.1986075016774087e+00  2.7730793971369605e-01  1.2885184627441879e+00  2.6197846502841959e-01  6.7038454413073112e-01  7.5022219856451766e-01  3.0529358765419129e-01  2.9935155108822464e-01  1.5384192733836357e+00  2.7956009420870265e-01  2.5323962459093485e-01  1.0322280257060110e-01  9.0786545609178496e-02  1.5588144824423313e+00  0.0000000000000000e+00  1.2201462139581956e+00  6.5635930436918777e-01  1.5357760150192634e-01  1.3713175565295839e+00  </DataArray> 
</PointData> 
</Piece>
</UnstructuredGrid>
</VTKFile>