<?xml version="1.0"?>
<VTKFile type="UnstructuredGrid"  version="0.1"  >
<UnstructuredGrid>
<Piece  NumberOfPoints="1130" NumberOfCells="2134">
<Points>
<DataArray  type="Float64"  NumberOfComponents="3"  format="ascii">0.2924965119749844 0.5806454640576162 0  0.2931357425666441 0.6158095738938106 0  0.2722845889387188 0.5986007514407707 0  0.06245154218797691 0.7943760977968389 0  0.05544056292684415 0.8360220202702611 0  0.02724914271240671 0.7995232918838924 0  0.1335850646589621 0.7291917770211511 0  0.09257890860895016 0.7227107754768907 0  0.1207009360036598 0.6914172198262521 0  -0.1127572484929876 0.6217075882064447 0  -0.09059232536756107 0.6461457043336694 0  -0.08244382822329682 0.6193610233350183 0  -0.1373197942797624 0.4432044140746515 0  -0.1708498639144158 0.4258289329533242 0  -0.1683718478273803 0.4550768101836 0  -0.2097608088645187 0.2706029166526365 0  -0.2553472029916841 0.2715809926304027 0  -0.2391685209522224 0.2307322500123088 0  -0.2612214313441482 0.4860827085271667 0  -0.2999268493360679 0.4942668376827834 0  -0.2761784895078877 0.5087930656610014 0  -0.6336799748740927 0.5412138273049375 0  -0.6367242063828276 0.4943077948128051 0  -0.6623691907668592 0.5109580860210953 0  -0.8189328877697528 0.4225545775266913 0  -0.7732510673161435 0.420047019447516 0  -0.7972043328982701 0.4010362957246634 0  0.09400378958013947 0.2055695036858353 0  0.1290725919584871 0.2207698374846717 0  0.1219808629418566 0.1890773044854493 0  -0.4309945018733153 0.5062643786080123 0  -0.4382089257601645 0.5497266439837095 0  -0.4119159386366162 0.5339223899750409 0  -0.6227781113910986 0.4494196041151011 0  -0.6567942943576646 0.4640171858672734 0  -0.6481157979026415 0.4373082602627743 0  -0.4712405913227501 0.1677045787871355 0  -0.5101607540755746 0.1422745461243285 0  -0.4855314936343032 0.1275817475248843 0  0.2162525383925422 0.08615652924307352 0  0.2246786184519418 0.05722134459703598 0  0.1858331413839794 0.06712133478128747 0  -0.395297655555004 0.5597085933417444 0  -0.393845571583094 0.5930343773993745 0  -0.3703409314215836 0.5744126151601694 0  -0.1732844607114084 0.7831016787925337 0  -0.2042612800303741 0.7831655859422791 0  -0.1887231468431922 0.8072354228488953 0  -0.2401164734357646 0.7642938074902216 0  -0.2007050285273371 0.7523935126534872 0  -0.2268594363809904 0.7369868775014541 0  -0.1696450233376555 0.7253721306646218 0  -0.2085138894959716 0.7108694539094691 0  -0.4304447217574816 0.7500053130336214 0  -0.4315890123179937 0.7095731294438389 0  -0.4566159372858562 0.7305137127660739 0  0.2068741599965308 0.6805917788483005 0  0.2050805379439151 0.7234446339117643 0  0.2218709634298657 0.7011057471390761 0  0.2162993597616463 -0.05864296304509958 0  0.1750354584180112 -0.06241539112817548 0  0.193720732252597 -0.0392358669981461 0  -0.0230893327402 0.1929077709269967 0  0.004761282153553419 0.1841053551365959 0  -0.0294157900699326 0.1671086648702482 0  0.1565461142119031 0.6738661189577495 0  0.1462519036200293 0.703786842447927 0  0.1808354785713632 0.6837740099682186 0  0.003584375230144248 0.8973914042388084 0  0.004168520773651397 0.9265977742636927 0  -0.02260959360525044 0.8990907582775318 0  -0.5553672154460828 0.1314190645461342 0  -0.5235028484586995 0.1112039343107129 0  0.1603091172319885 0.1987437044449037 0  0.1587220491624921 0.2266983155339805 0  0.1814480564065501 0.2139661830238536 0  -0.1528819986293607 0.1263255869844637 0  -0.1492482924853433 0.1580573615581254 0  -0.121785890413324 0.1264951045251249 0  0.06840700246376145 0.1813414697793323 0  0.05901930246285114 0.213188864059535 0  -0.1752833856350064 0.2330884014058902 0  -0.1463494540489943 0.2498979671367919 0  -0.1597540380916604 0.2128762917837419 0  -0.2666080625010207 0.8166860089768937 0  -0.2708315979539392 0.7816567174515252 0  -0.3125666401907646 0.8078345074970555 0  -0.404120413395211 0.790596968601049 0  -0.3736980272227576 0.8094398659945521 0  -0.3782485212331815 0.783550436492126 0  -0.6302032721917927 0.1842725605598824 0  -0.6662816078013655 0.1849757094845715 0  -0.6278359119408464 0.1559995968664962 0  0.04697055465782802 0.07164191122244783 0  0.03568486653295815 0.02782254432188264 0  0.07147362760462897 0.03813006809902156 0  0.07629170137027992 0.001199503106725944 0  -0.08254551195616064 0.2442760807068146 0  -0.1256264531238477 0.2318577153827438 0  -0.1100359059370774 0.2587079641700211 0  -0.2057340115688616 0.336734776516796 0  -0.1583351405483 0.3413766438249081 0  -0.1746963906066072 0.2991947239182672 0  0.2069802702871247 0.2191319025157533 0  0.2277242868701167 0.1958518940723663 0  0.2327020808785168 0.2211695803373901 0  0.08377029897187802 0.3968728637950909 0  0.09430952409275566 0.3649796683197574 0  0.1096177565212272 0.4086602604886229 0  0.1993614565197579 0.6303751881642145 0  0.2183947193733605 0.602039791860232 0  0.2244999519515443 0.6267009039980487 0  0.2603645391142563 0.6285756014906578 0  0.09969329332901172 0.7636117992424346 0  0.1302396754667923 0.7597935550942527 0  0.3054091438189218 0.7866902927858057 0  0.3357122182608844 0.7742694490625159 0  0.3340932520791566 0.8018765332110196 0  -0.3419627731396465 0.7347283846920364 0  -0.3520950571293062 0.7809111428238701 0  -0.3692699615099612 0.7343393389683085 0  -0.5840098151137766 0.2990048577514015 0  -0.6080756186142645 0.3165493008588801 0  -0.5823578507234605 0.3265486810853542 0  -0.7051763504253612 0.250234969313039 0  -0.7068111699962591 0.2244295694172429 0  -0.7307168990284388 0.2554584211146595 0  -0.4836131513794496 0.6232288808042636 0  -0.4928484342320275 0.5960519446409566 0  -0.5117044153203884 0.6291244044274967 0  -0.4409287066533773 0.6702178123895151 0  -0.4738508613963038 0.6572424830600011 0  -0.4501566366006438 0.6453775654719015 0  -0.3429952027518596 0.5223588630033167 0  -0.3206329923626178 0.5503883121993246 0  -0.3685624877363587 0.5418514467512064 0  -0.3893699539648601 0.6237039937970631 0  -0.3422033714709892 0.6265868844716567 0  -0.3644188643635339 0.6027670761648919 0  -0.6575050454237221 0.2288298014079799 0  -0.6447641122924658 0.2516770218638512 0  -0.6798884378325298 0.2427667040117376 0  0.2579067442312717 0.4688983724209494 0  0.2888513267043814 0.4378317642069166 0  0.2515399520834085 0.4316117661101545 0  0.2722069355506832 0.8284688529037881 0  0.2642325312678823 0.8678131532115284 0  0.2341417510346148 0.8335977078735048 0  -0.609195381974423 0.1346104521165029 0  -0.581512774190834 0.1459772283855625 0  -0.606311706240823 0.1720374621998764 0  -0.1137242964947925 0.7342494510189826 0  -0.1085533329295061 0.7711569775053645 0  -0.08842803878944591 0.7495212997310273 0  -0.09035277733789798 0.4919220888235711 0  -0.1387502465387686 0.4915819350525998 0  -0.1147755671194965 0.5236308404416747 0  -0.08799438577573623 0.3012994251470535 0  -0.08054411621706016 0.273239330540436 0  -0.06068658392917529 0.3120024979569823 0  -2.220446049250313e-16 0 0  0.03833101908736652 -0.01236714587332863 0  0.03332211297248573 0.1779883120077971 0  0.0553878700818049 0.1568128372514456 0  0.03879512812050209 0.1013532927181565 0  0.01956592186948998 0.06947958240077355 0  -0.3110288607107251 0.08135098352660518 0  -0.344921080983376 0.08229130413897219 0  -0.328161300472874 0.05287969798319995 0  -0.08860505921103043 0.5920506521433744 0  -0.1159536089414161 0.590966322597226 0  -0.1021964897951705 0.6788144063269812 0  -0.136261090104428 0.700646753224388 0  -0.1228430025016362 0.6531026549154566 0  0.1415956346790651 0.6023153900601184 0  0.1455023681906896 0.561880690090387 0  0.173814985803951 0.5850222891851874 0  -0.7039359164953137 0.1054244296900993 0  -0.7241549932545398 0.08547378493790607 0  -0.7240317325936491 0.1290401816176439 0  -0.7146836516968359 0.3927695373773623 0  -0.7171931948150422 0.4336007787289713 0  -0.7460250674529035 0.4301448157942048 0  -0.8336681057691238 0.345316635927459 0  -0.8219806880639507 0.3831114868492926 0  -0.8020922577552831 0.3633132148152522 0  -0.5618738577248394 0.6403651441164777 0  -0.5473882199946626 0.6849348980099506 0  -0.538289355892541 0.6573388026093229 0  -0.4824797505496254 0.3838810792864338 0  -0.5230731684421793 0.3642691414098798 0  -0.5137211790366101 0.3967288418064787 0  -0.09386743165719327 0.8868230745198202 0  -0.1334231263863611 0.8942731301668522 0  -0.1092845443900445 0.9137012029455377 0  -0.04523581318749946 0.8244439404340452 0  -0.0769396102945519 0.7908921470434424 0  -0.09343945562699482 0.8132315912754917 0  0.0455101775939576 -0.1178143478783519 0  0.07525030372245567 -0.08800061275601394 0  0.04261815316074052 -0.08518924674757319 0  0.1424349288786705 -0.03683910833544325 0  0.1406428911848698 -0.004598908502305238 0  0.1639118323293636 -0.01947543299796284 0  0.1859045193885197 -0.1024004418516471 0  0.19058579448583 -0.1427680390589207 0  0.216883382856332 -0.1337619999027692 0  -0.2373028979847076 0.5473261424768866 0  -0.1932653732436898 0.5665479687088435 0  -0.2062682446319116 0.5362814988625322 0  -0.2126522817199431 0.3845511360064228 0  -0.1866730065200072 0.3639012639806355 0  -0.4174180203574351 0.2086894809925613 0  -0.4048848604657676 0.1820574049833631 0  -0.4464806129667586 0.1834083348043779 0  -0.4568841982408385 0.1262359142486632 0  -0.4313452580001016 0.1582968730533858 0  0.07231769945658416 0.5196157514494713 0  0.03312463406788048 0.5008840041940618 0  0.06513249352082014 0.4842812410161731 0  -0.0004027730160685861 0.7771386075583826 0  -0.03905074592193825 0.7819032022368267 0  -0.02332525375120641 0.8059095547793576 0  -0.2649860329145938 0.1824261056420857 0  -0.3041191825682435 0.1773695031720618 0  -0.2803378790137869 0.1428742985583878 0  -0.2687508696165652 0.1158982906339185 0  -0.2514827659916298 0.1482915158136655 0  -0.322899042696953 0.1999682459755028 0  -0.3484887776281561 0.1655499381999704 0  -0.3515501295523116 0.2070651371825604 0  -0.3903979979922381 0.1564355708354559 0  -0.9163492829346521 0.2448659195690242 0  -0.9192152205576599 0.2847796305242293 0  
[...]
<PointData  Scalars="f_2282-2"> 
<DataArray  type="Float64"  Name="f_2282-2"  format="ascii">2.0556577582254065e-01  1.8586732234081874e-01  2.0087913064248736e-01  1.1502732917199872e-01  9.0177183610152492e-02  1.1286480640977244e-01  1.4894196208972374e-01  1.5693570010439656e-01  1.7353592360738074e-01  2.1695271831463242e-01  2.0409574346393733e-01  2.2120060936057720e-01  3.1628287081459244e-01  3.1915190559741730e-01  3.0423794423710149e-01  3.7780137501936017e-01  3.6365626410311935e-01  3.8219705862114556e-01  2.6555397091881794e-01  2.4987829948334439e-01  2.4936342394965641e-01  9.2888179947704166e-02  1.0945307386290759e-01  9.0969325431717457e-02  4.1723857621592447e-02  6.5276458118061140e-02  5.8418040071212984e-02  4.2283587455065536e-01  4.1283094827458949e-01  4.2314970982448108e-01  1.9646659319107779e-01  1.7275644969882709e-01  1.9054232198773402e-01  1.3239028359131680e-01  1.1044972267243373e-01  1.2420671539040028e-01  2.9584796395449053e-01  2.7892993474381444e-01  2.9472094725496162e-01  4.2069664509028953e-01  4.2111497655057439e-01  4.3122036252538176e-01  1.8385445966324274e-01  1.6717511962202564e-01  1.8478388069373441e-01  1.1164047793626478e-01  1.0739096963895850e-01  9.5499413710491116e-02  1.1244361699200343e-01  1.2581253036658774e-01  1.3073219285353804e-01  1.4681927476340656e-01  1.4933783383917926e-01  7.4319586487373329e-02  9.4555733939262393e-02  7.6189013922101215e-02  1.6753467432343336e-01  1.4229949204680839e-01  1.5279951348386350e-01  4.2344102305926867e-01  4.3496178352539117e-01  4.3124031429365872e-01  4.3233387504567061e-01  4.3534043066121547e-01  4.3863089174134157e-01  1.7968580829375946e-01  1.6287766314611546e-01  1.7008041000418997e-01  5.5402634315030307e-02  3.8925459177522215e-02  5.3995026671872781e-02  2.5425213224707205e-01  2.7546483793777066e-01  4.1310070119735387e-01  4.0483329239085314e-01  4.0339513673433219e-01  4.3131795895425207e-01  4.2561976401259449e-01  4.3724630558084887e-01  4.3270125762995498e-01  4.2438166183469239e-01  3.9933743026815283e-01  3.9990496748181431e-01  4.0900306813640969e-01  7.7683534868879370e-02  9.6551246861985379e-02  7.3478755671714219e-02  6.0899085536390736e-02  5.8839473566015078e-02  7.1077856535764927e-02  2.0177764107503574e-01  1.7974787373829673e-01  2.0762467075668048e-01  4.5468225582506905e-01  4.5873530652926642e-01  4.5508752664803453e-01  4.5595152340548045e-01  4.1196405965936744e-01  4.1017834753562238e-01  4.0321547051343554e-01  3.5283983717013584e-01  3.6191790767474330e-01  3.7595890640915025e-01  3.9527990779965794e-01  3.9562463631832140e-01  3.8698185448548783e-01  3.4708890891976474e-01  3.6160567573274277e-01  3.3805781473611096e-01  1.9871612625961993e-01  2.1161600788518053e-01  1.9590965704049962e-01  1.8679605624579507e-01  1.3125504335161700e-01  1.3089340370815145e-01  8.6544078151903056e-02  8.6700983119899988e-02  7.2081918422307101e-02  1.0679171039622591e-01  7.9084928520156306e-02  9.9686611188880989e-02  2.0191317881218232e-01  1.8359875109599283e-01  1.9465080132986137e-01  1.4480565669019529e-01  1.4886109231654981e-01  1.2870707001006182e-01  1.1978704323584792e-01  1.2909865816868649e-01  1.0627499842728928e-01  1.1167736104558205e-01  1.0676455226963685e-01  1.2102390161527309e-01  2.2113060684150673e-01  2.1386434969472173e-01  2.0243701068984341e-01  1.5280709466028930e-01  1.6595001799519032e-01  1.7193448569072359e-01  1.7718470797831209e-01  1.7940086255575011e-01  1.6071728882922229e-01  2.7553857204295357e-01  2.8184066007724573e-01  2.9626233040723415e-01  7.0015508294199766e-02  4.9815564314428913e-02  7.3631994061966147e-02  2.2200472214729719e-01  2.3686233308804513e-01  2.1759423160041533e-01  1.4803478147318380e-01  1.2597289726865052e-01  1.4056515372330211e-01  2.9588099173857813e-01  2.8987219457231894e-01  2.7499834672222662e-01  3.9011277376108300e-01  4.0201182165083171e-01  3.8830523950122553e-01  4.6013990173276365e-01  4.5886668645474660e-01  4.3590931712957515e-01  4.3950565805630482e-01  4.5119637777158628e-01  4.5618485833013472e-01  3.8697373585050759e-01  3.7202480757959622e-01  3.8203530987437756e-01  2.3732955874986925e-01  2.3499152536217882e-01  1.8307006980691534e-01  1.6604718180901243e-01  1.9662585312897343e-01  2.2498022101442455e-01  2.4843938007600333e-01  2.3013893310779857e-01  1.6745364905441454e-01  1.5631319830234430e-01  1.5270552505244306e-01  1.0348146263876978e-01  9.0026568686413733e-02  7.6443231958937097e-02  5.2639059278335412e-02  4.9716073154094258e-02  6.5199037285271377e-02  8.1901312323581998e-02  6.7337397863621848e-02  8.3231386572761509e-02  2.2635445137571125e-01  2.1359504237658572e-01  2.0619636906643124e-01  5.8785051453013770e-02  5.1466425240787220e-02  4.2289344628737985e-02  9.7706291437407236e-02  1.1625913282129612e-01  1.0176966733559106e-01  4.4836607019077712e-01  4.5009668776730932e-01  4.5333339946859336e-01  4.4410054388686004e-01  4.4527160557707485e-01  4.3989789369362131e-01  4.2717097591571934e-01  4.1916679440882065e-01  4.1309185639435941e-01  2.3849558855816572e-01  2.3745124970879888e-01  2.5197328811987874e-01  3.2956177293329031e-01  3.4541967505907450e-01  3.1476659319963168e-01  3.2709873043377641e-01  3.0572465414806049e-01  3.1078400653615407e-01  3.1876358708070096e-01  2.8174293247527782e-01  2.9485926383244382e-01  3.0242779527699087e-01  1.2711678405130916e-01  1.2329961763767643e-01  1.0906515332952643e-01  3.8687360046242730e-01  3.7335240795896618e-01  3.8968944115220966e-01  3.9893525951617864e-01  3.9918051707395974e-01  3.6006897059673798e-01  3.5710822862361741e-01  3.4610677298024389e-01  3.3948432798249822e-01  2.6660196438230050e-02  1.9095292559912873e-02  3.3222294947538832e-02  2.5631269015498698e-01  2.4502755799636824e-01  2.3127496149983656e-01  1.9706751650715290e-01  1.7898730774615207e-01  2.9211260414711566e-02  3.4361602038289508e-02  4.6712698748536993e-02  1.6759302791241934e-01  1.9101654277887861e-01  1.7834473310514234e-01  1.2396376571956381e-01  1.4304279599892969e-01  1.1960482640168205e-01  5.6922928907346557e-02  3.6852959989613444e-02  4.0185355940695916e-02  4.1527071601154195e-02  5.8229166628577182e-02  4.1644781625731139e-02  2.7806701090654640e-01  2.7514470261490132e-01  2.9499971238867179e-01  3.6927588090796348e-01  2.4296955071166276e-01  2.3812274349092286e-01  2.2508860112548532e-01  2.8376363263906534e-01  3.1021431272524880e-01  2.8299502108486491e-01  8.5778141127836452e-02  7.7945221361237327e-02  1.3139053862935157e-01  1.4861902612523598e-01  7.1671802021685119e-02  5.9058469741775026e-02  7.4540928869369777e-02  3.0504684146474459e-01  3.1492030582754371e-01  3.2116705265238898e-01  1.8294417113427278e-01  1.8865395694276960e-01  1.7203139151567284e-01  4.4275626794293127e-01  4.5207307953664561e-01  4.4791172267605034e-01  8.4071949012635289e-02  9.4155952045273328e-02  9.9266244362527095e-02  0.0000000000000000e+00  0.0000000000000000e+00  3.7834572435610103e-01  3.9061733820356415e-01  3.8676989233545567e-01  4.4311215891986910e-01  3.9753907091619733e-01  3.8712295676488206e-01  4.0391608940280649e-01  3.3874174504394233e-01  3.3829923701362752e-01  3.5186939283567820e-01  2.0145923717006001e-01  2.1566043500457810e-01  1.8971096589295261e-01  2.1921549018305680e-01  1.5946602614766528e-01  1.4070837750008636e-01  1.5152167644438963e-01  1.9619943972313758e-01  1.7036638806864129e-01  1.8650153120620025e-01  2.5578449606990677e-01  2.4062251162833170e-01  2.5726186378924271e-01  0.0000000000000000e+00  1.1797048217094847e-02  1.3040655619482882e-02  2.8266353115779522e-02  1.8090936039118145e-02  3.4806996112302722e-02  1.9296525318311036e-01  1.7592289396909072e-01  1.6333623069762465e-01  9.6128733074707221e-02  8.2750449533005074e-02  1.1824837729249350e-01  1.1392516884145987e-01  4.0053189759704327e-01  3.9231203672928266e-01  3.6592622969914823e-01  3.5241458958458377e-01  3.5828715705419206e-01  3.6435135572757105e-01  2.3265863469377529e-01  2.1422191408476385e-01  2.2359704353824611e-01  5.4392733456290990e-02  5.4817956389258168e-02  3.6896838865042275e-02  5.6948778521037531e-02  4.5598058686159115e-01  4.5675028140881729e-01  4.5900972115734301e-01  4.5902581702429152e-01  1.7103602296072326e-01  1.8602582416557017e-01  1.7945437262259017e-01  3.1843448291750781e-01  3.0411294064977168e-01  3.2815045125656794e-01  3.8572923873013204e-01  4.0034802443296763e-01  3.4350115011509541e-01  3.4296340494449756e-01  3.6042684660863550e-01  1.3716050108197966e-01  8.3558721702400987e-02  1.0331239382218715e-01  1.1797482536450715e-01  1.1804871372031225e-01  7.5988160448613840e-02  2.3408957472924707e-01  2.3814797820988229e-01  2.1851833914405966e-01  1.4211125386440357e-01  1.6011467306885246e-01  1.4714454570472854e-01  1.3817267633202107e-01  1.3985542461666831e-01  3.9477990760500725e-01  4.3997101224094620e-01  4.4116894324747663e-01  4.4513765813922584e-01  1.4923940785070774e-01  1.6714749757999026e-01  1.7507250245162145e-01  1.1098788525275943e-01  1.3706780032284779e-01  1.2370735510971062e-01  2.2553575588847890e-02  1.2228047239641273e-02  4.4308860029480807e-01  4.5096602051581314e-01  4.5167862706543060e-01  4.1805059329246413e-01  4.3195641582359107e-01  3.7790820159754834e-01  3.6801184759929223e-01  4.0036837564826783e-01  4.1397443966849939e-01  4.0476373710537594e-01  4.0831238496025157e-01  4.1422363348685104e-01  4.2351444655669418e-01  1.8279828629207015e-01  1.8292151785024668e-01  1.6217132920681276e-01  4.4814172217538623e-01  4.4588288336681414e-01  4.5170678300809608e-01  2.0069635440673286e-01  2.0204800996849806e-01  1.8347699531728612e-01  3.8892235010536397e-01  3.8294761431050511e-01  2.3648372573867013e-01  2.1679727192090958e-01  2.3344139840082975e-01  2.5267849193907738e-01  2.9301562609071102e-01  3.0059788995644193e-01  2.8907100335262054e-01  3.0538707828032091e-01  2.9942490097365171e-01  2.8776812459740420e-01  2.7625967366080323e-01  2.9273079222536819e-01  3.1352933277777895e-01  2.9284824894748263e-01  2.5915756062090023e-01  2.5826432159949347e-01  3.0933696219722101e-01  3.3265487272821020e-01  2.3262560589615797e-01  2.2967957645981824e-01  2.6327827283930716e-01  2.7865479210725475e-01  9.9698821875399427e-02  1.2142684815543832e-01  1.1428332750034063e-01  1.8073407390904614e-01  5.0518744531111340e-02  5.4094201364163590e-02  3.9170243768154395e-02  4.4892713241266535e-02  6.5183478597501815e-02  5.0378706517886999e-02  3.7969188890410843e-01  1.0357013763046394e-01  1.9896672859493328e-01  4.4602871342047368e-01  4.3879624243161985e-01  4.5313343515251464e-01  2.3306476696892114e-01  2.1560125830501989e-01  2.3626004647046076e-01  2.5424617764283503e-01  3.6543319994132788e-02  4.5228206214424548e-02  5.7065481559766977e-02  3.7987204529796836e-01  3.7259425419234027e-01  3.2727627804502857e-01  3.3185139982863848e-01  2.6627934137339143e-01  1.5617884163873030e-01  1.4641240212072748e-01  1.7253280420472261e-01  2.1397122599136904e-02  1.0427641378017664e-02  3.1608833918290002e-02  9.4450818832901032e-02  0.0000000000000000e+00  1.4455375664144524e-02  0.0000000000000000e+00  7.8332651816953189e-02  6.4605359744329016e-02  6.2719375750049142e-02  3.4022358698719052e-01  3.2998899867367765e-01  3.5636049223576344e-01  3.3905148825954939e-01  3.5904432140769549e-01  2.4029264526185168e-01  2.6226095156706619e-01  2.5332238458825385e-01  2.7427557109113171e-01  3.4286197953222286e-01  3.5903562507058556e-01  3.4522216660313076e-01  3.3312635854023381e-01  3.2101816046459869e-01  3.3541516640995050e-01  1.1422957689346504e-01  1.2967455892202179e-01  1.1401905941946651e-01  4.0404573775443230e-02  3.4177794479473458e-02  2.4554701894108102e-02  0.0000000000000000e+00  0.0000000000000000e+00  2.7797166689028888e-02  1.5600793604575386e-02  6.8967807057104355e-02  7.0621377264272506e-02  3.9573058512773859e-02  3.6965011573218041e-02  1.8134030535589821e-02  0.0000000000000000e+00  0.0000000000000000e+00  1.8573744046084925e-01  1.8661254587154974e-01  1.7005036497710591e-01  4.4261708749072448e-01  4.4840209588607360e-01  4.3244169588064835e-01  4.3882880396204760e-01  4.3194464844358871e-01  2.7105970394103746e-01  2.8513328235944080e-01  2.8853600551566705e-01  3.2806625991966387e-01  3.3891296138587795e-01  1.5743334318231303e-01  1.7266361178381973e-01  1.1228575077956085e-01  1.0948278367914788e-01  9.2239920292966085e-02  2.2797886154450200e-01  2.1291915025206962e-01  2.5166449601703955e-01  3.4542040287830278e-01  3.5661414821217152e-01  3.3528384223241137e-01  1.9908412640336973e-01  1.6932121102451747e-01  1.4326598041737909e-01  1.6478698394528346e-01  1.8638075184371750e-01  2.0305310369369700e-01  1.8758512009513711e-01  9.9376490737200993e-02  8.1917444098538447e-02  7.1389594710002016e-02  4.5800907110400507e-01  4.5905472342480719e-01  4.5650409711872958e-01  4.5593330039152491e-01  4.5760144134847863e-01  7.3644829260985437e-02  5.5945855191049387e-02  4.5686812884243150e-01  4.5453667409153348e-01  4.4155971907205083e-01  4.3627071694399727e-01  4.3484664432617021e-01  7.7834815897199650e-02  9.9331010665169528e-02  1.3051475413581512e-01  1.1157854402251602e-01  1.3147272329253865e-01  2.2782877012595681e-02  2.1108733898978028e-02  1.0323076651399464e-02  3.2232674036163772e-01  3.0223177295588471e-01  2.9004357628033567e-01  2.8618030198388922e-01  7.1383079138946731e-02  5.9489841948167949e-02  1.9296652612972691e-02  4.0335123521937973e-02  2.4271362271279484e-01  2.1639716188784974e-01  1.9595418126895467e-01  4.8517093999138686e-02  6.7640771292790600e-02  6.6312543237831006e-02  5.3429631615017889e-02  4.5156475618216813e-02  7.9951107713192388e-02  9.6739212710394221e-02  1.0733745977610926e-01  2.9221690444501305e-02  1.7853024867067448e-02  1.5253240559243510e-02  3.8665766380958207e-02  4.5136055174147155e-01  5.3834985362410090e-02  3.9310304336898153e-02  3.8122727378531659e-02  7.2345086865367628e-02  6.6445203375092299e-02  3.8871724556787718e-01  2.9274574836191886e-01  2.7632779858554635e-01  2.7746060511482479e-01  2.5468124118942026e-01  2.8453822849129679e-01  3.0804174313149074e-01  3.2604742070686915e-01  2.5449976554796517e-02  2.3014409648338705e-02  3.9333596309093533e-01  4.0640887326321501e-01  3.9533478337308181e-01  2.5358031816581328e-01  2.9616492137024664e-01  2.7897978102802085e-01  1.3146105243285444e-01  4.3768289011941713e-01  3.5161082001896776e-01  3.7198768676275779e-01  4.1305382950134878e-01  4.2811608265939533e-01  4.2102273691478459e-01  4.1420457601613864e-01  1.6547263301197940e-01  1.3978889942822939e-01  1.5147359138766037e-01  1.6296983273051602e-01  2.3680026307149973e-01  2.1929142184063688e-01  2.6562964130733896e-01  2.7725219538231255e-01  1.6510013316830441e-01  2.2149032051970399e-01  2.8335167475792422e-01  2.9873704085468894e-01  2.6282158858644389e-01  2.5703649843229498e-01  4.2447524577913343e-01  4.3157705557820430e-01  4.2920248953429235e-01  4.3097250139186261e-01  9.7412848890302869e-02  1.3317412816809573e-01  1.3808238038036436e-01  1.1539161233749712e-01  1.5511706146228470e-02  1.0988567490199924e-01  9.0053761147548608e-02  7.6005589142188301e-02  8.4911573933704299e-02  4.3939165490786292e-01  2.7454040912913199e-02  3.6483235885065433e-02  1.3117593962540487e-02  2.9819827628884060e-01  2.7804215225714835e-01  2.9758999890195181e-01  3.0780225095111180e-01  3.1357755154641948e-01  4.5864499210791615e-01  4.5408596405355894e-01  4.2173382882694738e-01  4.1594040886995681e-01  4.2502417951478044e-01  4.3237208983819120e-01  4.2085994590093151e-01  4.2309287365624437e-01  2.6695954327793042e-01  2.6882388425795445e-01  2.3458889706845695e-01  1.5284455026491217e-01  1.4530725833122751e-01  1.5894573953461988e-01  2.5109657943558061e-01  2.4487046481643326e-01  2.6241751716865386e-01  2.5990376453470188e-01  2.4268158134075066e-01  4.3087264481432858e-01  3.9288342719708685e-01  4.0805049362676027e-01  3.9833539845132959e-01  3.9236976543724311e-01  7.0623582244247182e-02  5.4615692317726929e-02  7.3527866501336844e-02  3.2579458097283109e-01  3.1165460528534372e-01  3.1115736530312382e-01  3.8082879486699667e-01  3.4516506486812287e-01  4.5426417329032553e-01  4.3086875151244408e-01  4.3292366332940829e-01  3.2852490103309134e-01  3.1310797557419384e-01  2.9605375363899683e-01  1.4418114689075387e-01  1.1159978818999432e-01  7.6166682895210058e-02  9.3203928869964509e-02  8.8259290652799083e-02  7.8618678614994608e-02  0.0000000000000000e+00  1.2370125990916690e-02  2.8119647945867108e-02  3.1267461617224818e-01  2.9552634999590416e-01  3.0422531050102020e-01  8.7729170432171072e-02  1.2754441925137927e-01  1.5370702317455973e-01  3.5786390041882837e-01  3.3836968938540574e-01  3.4908706461292416e-01  3.4046575070236107e-01  3.2444178574201826e-01  3.2617501695234258e-01  3.0770267076336055e-01  2.5401014603443614e-02  3.5062768862959004e-02  6.8229280771824177e-02  1.2481849034551477e-01  1.3222951616107537e-01  1.4638460989345384e-01  1.4569532661378121e-01  4.2042252728928559e-01  4.2588499542227276e-01  4.1670954189778392e-01  3.7354317426901568e-01  3.9833814937621018e-02  4.3607826713186512e-02  4.4479616683079197e-02  6.0459948858220279e-02  2.4062759658109228e-01  5.6997699905325688e-02  4.4830598191635956e-02  4.0999702532134419e-02  5.6917248759171597e-02  0.0000000000000000e+00  1.1232066312880979e-02  1.3713347572011021e-02  2.6999455716714849e-01  3.0928910987208952e-01  3.2580965325878619e-01  1.4721719132885897e-01  1.7863239257530431e-01  1.5487705025811332e-01  2.0082456867093360e-01  1.8339809543153512e-01  3.6294624974117978e-01  3.7265989308345243e-01  1.3947311717740410e-01  1.8306235712465488e-01  1.1099061422518985e-01  1.2877008839299883e-01  1.8033624828395722e-01  1.8535488034388861e-01  9.1846523696050411e-02  2.5049462299514252e-02  2.1702069832357930e-02  4.4309371436204054e-01  4.5417747852890061e-01  2.0965893332052091e-01  2.2572696983388799e-01  2.1003415967785372e-01  1.9225705970445348e-01  1.7984829002511354e-01  2.1502839660148772e-02  2.4138162467392508e-02  1.7566817607014722e-02  4.7066236146844742e-02  4.3674305593216160e-02  9.0748939367952391e-02  1.0685694532349056e-01  4.3850118213018291e-01  4.4747042059581793e-01  4.3557395354907213e-01  4.4893447019365346e-01  4.4188262116373478e-01  4.4806928350022918e-01  4.4577406988496848e-01  1.9170790318171649e-01  2.1280143932949927e-01  8.8381532729259207e-02  7.4027573906454605e-02  8.3386734648628932e-02  2.7147135189319185e-02  1.2221554839323195e-02  1.4769005120777754e-02  2.6240420378319840e-01  2.7731742610398630e-01  3.1219055856967143e-01  3.7125126418293536e-01  3.7175310247163845e-01  3.5757292924451467e-01  1.3816523884854270e-01  1.4494040372335501e-01  1.5458507629863899e-01  4.6873188731826811e-02  0.0000000000000000e+00  0.0000000000000000e+00  1.9287584664366229e-02  1.5398937954368348e-02  3.2318868296032005e-01  4.4337740712004176e-01  1.0485804227568192e-01  1.2437017634158756e-01  1.0352694367131531e-01  4.1032654259293844e-01  9.3870427300438181e-02  4.4896982243128221e-02  3.6575002617738683e-01  3.7980806851707150e-01  3.7679535807584474e-01  3.9304274284453605e-01  3.9293776565271854e-01  3.8128625424192575e-01  3.3290908468806257e-01  2.6231487427646177e-01  4.0623660418531930e-02  6.1912716552558762e-02  1.2523326393614359e-01  2.3255945958830129e-01  2.3561649066949808e-01  2.8667816768636489e-01  4.2269292889594950e-01  4.1490132182768974e-01  3.4144859399360944e-01  3.6452055643482817e-01  2.1881707997935226e-01  1.9978428427940251e-01  2.1279771444647289e-01  1.0354016375052916e-01  7.0329949692781460e-02  2.5929199460999051e-02  2.5886648570113073e-02  1.0980133548301071e-02  2.8471993337666753e-02  1.2957970798268485e-02  4.0502786412785363e-01  3.9833089462752153e-01  4.4799404379276075e-01  4.4727682646338796e-01  4.3807408012666588e-01  0.0000000000000000e+00  0.0000000000000000e+00  3.8082936775252603e-02  2.1203675687531287e-02  1.9386274774389037e-01  1.597090537