<?xml version="1.0"?>
<VTKFile type="UnstructuredGrid"  version="0.1"  >
<UnstructuredGrid>
<Piece  NumberOfPoints="1130" NumberOfCells="2134">
<Points>
<DataArray  type="Float64"  NumberOfComponents="3"  format="ascii">0.2924965119749844 0.5806454640576162 0  0.2931357425666441 0.6158095738938106 0  0.2722845889387188 0.5986007514407707 0  0.06245154218797691 0.7943760977968389 0  0.05544056292684415 0.8360220202702611 0  0.02724914271240671 0.7995232918838924 0  0.1335850646589621 0.7291917770211511 0  0.09257890860895016 0.7227107754768907 0  0.1207009360036598 0.6914172198262521 0  -0.1127572484929876 0.6217075882064447 0  -0.09059232536756107 0.6461457043336694 0  -0.08244382822329682 0.6193610233350183 0  -0.1373197942797624 0.4432044140746515 0  -0.1708498639144158 0.4258289329533242 0  -0.1683718478273803 0.4550768101836 0  -0.2097608088645187 0.2706029166526365 0  -0.2553472029916841 0.2715809926304027 0  -0.2391685209522224 0.2307322500123088 0  -0.2612214313441482 0.4860827085271667 0  -0.2999268493360679 0.4942668376827834 0  -0.2761784895078877 0.5087930656610014 0  -0.6336799748740927 0.5412138273049375 0  -0.6367242063828276 0.4943077948128051 0  -0.6623691907668592 0.5109580860210953 0  -0.8189328877697528 0.4225545775266913 0  -0.7732510673161435 0.420047019447516 0  -0.7972043328982701 0.4010362957246634 0  0.09400378958013947 0.2055695036858353 0  0.1290725919584871 0.2207698374846717 0  0.1219808629418566 0.1890773044854493 0  -0.4309945018733153 0.5062643786080123 0  -0.4382089257601645 0.5497266439837095 0  -0.4119159386366162 0.5339223899750409 0  -0.6227781113910986 0.4494196041151011 0  -0.6567942943576646 0.4640171858672734 0  -0.6481157979026415 0.4373082602627743 0  -0.4712405913227501 0.1677045787871355 0  -0.5101607540755746 0.1422745461243285 0  -0.4855314936343032 0.1275817475248843 0  0.2162525383925422 0.08615652924307352 0  0.2246786184519418 0.05722134459703598 0  0.1858331413839794 0.06712133478128747 0  -0.395297655555004 0.5597085933417444 0  -0.393845571583094 0.5930343773993745 0  -0.3703409314215836 0.5744126151601694 0  -0.1732844607114084 0.7831016787925337 0  -0.2042612800303741 0.7831655859422791 0  -0.1887231468431922 0.8072354228488953 0  -0.2401164734357646 0.7642938074902216 0  -0.2007050285273371 0.7523935126534872 0  -0.2268594363809904 0.7369868775014541 0  -0.1696450233376555 0.7253721306646218 0  -0.2085138894959716 0.7108694539094691 0  -0.4304447217574816 0.7500053130336214 0  -0.4315890123179937 0.7095731294438389 0  -0.4566159372858562 0.7305137127660739 0  0.2068741599965308 0.6805917788483005 0  0.2050805379439151 0.7234446339117643 0  0.2218709634298657 0.7011057471390761 0  0.2162993597616463 -0.05864296304509958 0  0.1750354584180112 -0.06241539112817548 0  0.193720732252597 -0.0392358669981461 0  -0.0230893327402 0.1929077709269967 0  0.004761282153553419 0.1841053551365959 0  -0.0294157900699326 0.1671086648702482 0  0.1565461142119031 0.6738661189577495 0  0.1462519036200293 0.703786842447927 0  0.1808354785713632 0.6837740099682186 0  0.003584375230144248 0.8973914042388084 0  0.004168520773651397 0.9265977742636927 0  -0.02260959360525044 0.8990907582775318 0  -0.5553672154460828 0.1314190645461342 0  -0.5235028484586995 0.1112039343107129 0  0.1603091172319885 0.1987437044449037 0  0.1587220491624921 0.2266983155339805 0  0.1814480564065501 0.2139661830238536 0  -0.1528819986293607 0.1263255869844637 0  -0.1492482924853433 0.1580573615581254 0  -0.121785890413324 0.1264951045251249 0  0.06840700246376145 0.1813414697793323 0  0.05901930246285114 0.213188864059535 0  -0.1752833856350064 0.2330884014058902 0  -0.1463494540489943 0.2498979671367919 0  -0.1597540380916604 0.2128762917837419 0  -0.2666080625010207 0.8166860089768937 0  -0.2708315979539392 0.7816567174515252 0  -0.3125666401907646 0.8078345074970555 0  -0.404120413395211 0.790596968601049 0  -0.3736980272227576 0.8094398659945521 0  -0.3782485212331815 0.783550436492126 0  -0.6302032721917927 0.1842725605598824 0  -0.6662816078013655 0.1849757094845715 0  -0.6278359119408464 0.1559995968664962 0  0.04697055465782802 0.07164191122244783 0  0.03568486653295815 0.02782254432188264 0  0.07147362760462897 0.03813006809902156 0  0.07629170137027992 0.001199503106725944 0  -0.08254551195616064 0.2442760807068146 0  -0.1256264531238477 0.2318577153827438 0  -0.1100359059370774 0.2587079641700211 0  -0.2057340115688616 0.336734776516796 0  -0.1583351405483 0.3413766438249081 0  -0.1746963906066072 0.2991947239182672 0  0.2069802702871247 0.2191319025157533 0  0.2277242868701167 0.1958518940723663 0  0.2327020808785168 0.2211695803373901 0  0.08377029897187802 0.3968728637950909 0  0.09430952409275566 0.3649796683197574 0  0.1096177565212272 0.4086602604886229 0  0.1993614565197579 0.6303751881642145 0  0.2183947193733605 0.602039791860232 0  0.2244999519515443 0.6267009039980487 0  0.2603645391142563 0.6285756014906578 0  0.09969329332901172 0.7636117992424346 0  0.1302396754667923 0.7597935550942527 0  0.3054091438189218 0.7866902927858057 0  0.3357122182608844 0.7742694490625159 0  0.3340932520791566 0.8018765332110196 0  -0.3419627731396465 0.7347283846920364 0  -0.3520950571293062 0.7809111428238701 0  -0.3692699615099612 0.7343393389683085 0  -0.5840098151137766 0.2990048577514015 0  -0.6080756186142645 0.3165493008588801 0  -0.5823578507234605 0.3265486810853542 0  -0.7051763504253612 0.250234969313039 0  -0.7068111699962591 0.2244295694172429 0  -0.7307168990284388 0.2554584211146595 0  -0.4836131513794496 0.6232288808042636 0  -0.4928484342320275 0.5960519446409566 0  -0.5117044153203884 0.6291244044274967 0  -0.4409287066533773 0.6702178123895151 0  -0.4738508613963038 0.6572424830600011 0  -0.4501566366006438 0.6453775654719015 0  -0.3429952027518596 0.5223588630033167 0  -0.3206329923626178 0.5503883121993246 0  -0.3685624877363587 0.5418514467512064 0  -0.3893699539648601 0.6237039937970631 0  -0.3422033714709892 0.6265868844716567 0  -0.3644188643635339 0.6027670761648919 0  -0.6575050454237221 0.2288298014079799 0  -0.6447641122924658 0.2516770218638512 0  -0.6798884378325298 0.2427667040117376 0  0.2579067442312717 0.4688983724209494 0  0.2888513267043814 0.4378317642069166 0  0.2515399520834085 0.4316117661101545 0  0.2722069355506832 0.8284688529037881 0  0.2642325312678823 0.8678131532115284 0  0.2341417510346148 0.8335977078735048 0  -0.609195381974423 0.1346104521165029 0  -0.581512774190834 0.1459772283855625 0  -0.606311706240823 0.1720374621998764 0  -0.1137242964947925 0.7342494510189826 0  -0.1085533329295061 0.7711569775053645 0  -0.08842803878944591 0.7495212997310273 0  -0.09035277733789798 0.4919220888235711 0  -0.1387502465387686 0.4915819350525998 0  -0.1147755671194965 0.5236308404416747 0  -0.08799438577573623 0.3012994251470535 0  -0.08054411621706016 0.273239330540436 0  -0.06068658392917529 0.3120024979569823 0  -2.220446049250313e-16 0 0  0.03833101908736652 -0.01236714587332863 0  0.03332211297248573 0.1779883120077971 0  0.0553878700818049 0.1568128372514456 0  0.03879512812050209 0.1013532927181565 0  0.01956592186948998 0.06947958240077355 0  -0.3110288607107251 0.08135098352660518 0  -0.344921080983376 0.08229130413897219 0  -0.328161300472874 0.05287969798319995 0  -0.08860505921103043 0.5920506521433744 0  -0.1159536089414161 0.590966322597226 0  -0.1021964897951705 0.6788144063269812 0  -0.136261090104428 0.700646753224388 0  -0.1228430025016362 0.6531026549154566 0  0.1415956346790651 0.6023153900601184 0  0.1455023681906896 0.561880690090387 0  0.173814985803951 0.5850222891851874 0  -0.7039359164953137 0.1054244296900993 0  -0.7241549932545398 0.08547378493790607 0  -0.7240317325936491 0.1290401816176439 0  -0.7146836516968359 0.3927695373773623 0  -0.7171931948150422 0.4336007787289713 0  -0.7460250674529035 0.4301448157942048 0  -0.8336681057691238 0.345316635927459 0  -0.8219806880639507 0.3831114868492926 0  -0.8020922577552831 0.3633132148152522 0  -0.5618738577248394 0.6403651441164777 0  -0.5473882199946626 0.6849348980099506 0  -0.538289355892541 0.6573388026093229 0  -0.4824797505496254 0.3838810792864338 0  -0.5230731684421793 0.3642691414098798 0  -0.5137211790366101 0.3967288418064787 0  -0.09386743165719327 0.8868230745198202 0  -0.1334231263863611 0.8942731301668522 0  -0.1092845443900445 0.9137012029455377 0  -0.04523581318749946 0.8244439404340452 0  -0.0769396102945519 0.7908921470434424 0  -0.09343945562699482 0.8132315912754917 0  0.0455101775939576 -0.1178143478783519 0  0.07525030372245567 -0.08800061275601394 0  0.04261815316074052 -0.08518924674757319 0  0.1424349288786705 -0.03683910833544325 0  0.1406428911848698 -0.004598908502305238 0  0.1639118323293636 -0.01947543299796284 0  0.1859045193885197 -0.1024004418516471 0  0.19058579448583 -0.1427680390589207 0  0.216883382856332 -0.1337619999027692 0  -0.2373028979847076 0.5473261424768866 0  -0.1932653732436898 0.5665479687088435 0  -0.2062682446319116 0.5362814988625322 0  -0.2126522817199431 0.3845511360064228 0  -0.1866730065200072 0.3639012639806355 0  -0.4174180203574351 0.2086894809925613 0  -0.4048848604657676 0.1820574049833631 0  -0.4464806129667586 0.1834083348043779 0  -0.4568841982408385 0.1262359142486632 0  -0.4313452580001016 0.1582968730533858 0  0.07231769945658416 0.5196157514494713 0  0.03312463406788048 0.5008840041940618 0  0.06513249352082014 0.4842812410161731 0  -0.0004027730160685861 0.7771386075583826 0  -0.03905074592193825 0.7819032022368267 0  -0.02332525375120641 0.8059095547793576 0  -0.2649860329145938 0.1824261056420857 0  -0.3041191825682435 0.1773695031720618 0  -0.2803378790137869 0.1428742985583878 0  -0.2687508696165652 0.1158982906339185 0  -0.2514827659916298 0.1482915158136655 0  -0.322899042696953 0.1999682459755028 0  -0.3484887776281561 0.1655499381999704 0  -0.3515501295523116 0.2070651371825604 0  -0.3903979979922381 0.1564355708354559 0  -0.9163492829346521 0.2448659195690242 0  -0.9192152205576599 0.2847796305242293 0  
[...]
<PointData  Scalars="f_2282-2"> 
<DataArray  type="Float64"  Name="f_2282-2"  format="ascii">3.1452113543910609e-01  2.8476156404397263e-01  3.0743351589851481e-01  1.7699573273221053e-01  1.3894311742997703e-01  1.7368844666191721e-01  2.2873038314633368e-01  2.4088055556414384e-01  2.6607637334128614e-01  3.3168469963217445e-01  3.1230648604003353e-01  3.3808518293936518e-01  4.8027429115960063e-01  4.8452647816163374e-01  4.6235162734158652e-01  5.7127795285035554e-01  5.5041720093773738e-01  5.7775117432506162e-01  4.0464645079033251e-01  3.8117657435269020e-01  3.8039217616161575e-01  1.4309432170248521e-01  1.6846994143569602e-01  1.4014327466691689e-01  6.4406451551639363e-02  1.0068973098766093e-01  9.0123474810515025e-02  6.3745206645959840e-01  6.2278415986853974e-01  6.3791414291576010e-01  3.0078266913081719e-01  2.6490129724828254e-01  2.9182462030378437e-01  2.0351193709585214e-01  1.6999995076665778e-01  1.9100498789788573e-01  4.4986007525377081e-01  4.2464233710292620e-01  4.4819044243850797e-01  6.3431916549933209e-01  6.3493475354274376e-01  6.4973311476417905e-01  2.8170615039341607e-01  2.5642455230999245e-01  2.8312323242668125e-01  1.7182245351850112e-01  1.6531137496236237e-01  1.4708900609187717e-01  1.7303695595738691e-01  1.9347707338081058e-01  2.0097507751586655e-01  2.2549726536578885e-01  2.2932395493085622e-01  1.1459164214537312e-01  1.4565543580216692e-01  1.1746031756794245e-01  2.5698476255603708e-01  2.1861946826746309e-01  2.3456701153970219e-01  6.3834012618926483e-01  6.5521584374842190e-01  6.4976315301129617e-01  6.5136254948847849e-01  6.5576931496029867e-01  6.6057973298363093e-01  2.7539770636665067e-01  2.4990016702504786e-01  2.6083519541239525e-01  8.5480602384722923e-02  6.0089640728734135e-02  8.3317647846514770e-02  3.8773428365657625e-01  4.1946328176089531e-01  6.2317993456924792e-01  6.1104176053811843e-01  6.0892925102255469e-01  6.4988036087625400e-01  6.4153633128424459e-01  6.5855174197618560e-01  6.5190526811984606e-01  6.3971983507598817e-01  6.0296995978550183e-01  6.0379818925215378e-01  6.1716573696636901e-01  1.1975747092997568e-01  1.4871404999158103e-01  1.1329331003179777e-01  9.3952383252789956e-02  9.0774636746679807e-02  1.0959229344391805e-01  3.0880525409025800e-01  2.7549875425426085e-01  3.1763489368548004e-01  6.8403851816697803e-01  6.8995443826252167e-01  6.8462926742059005e-01  6.8589319695454254e-01  6.2150765870237457e-01  6.1889355182265038e-01  6.0866566049508863e-01  5.3443979688874310e-01  5.4785089090090666e-01  5.6856282364345834e-01  5.9700453430820688e-01  5.9751000066266247e-01  5.8479517620388632e-01  5.2593415816137878e-01  5.4739162697508492e-01  5.1256518904980097e-01  3.0419062935379587e-01  3.2364477256421909e-01  2.9993643238328727e-01  2.8617304540808025e-01  2.0177695200200960e-01  2.0121470733774288e-01  1.3336503051378323e-01  1.3359340609521472e-01  1.1114637321567222e-01  1.6439495254095993e-01  1.2191830641472975e-01  1.5351175420744551e-01  3.0900950831983603e-01  2.8131471345222020e-01  2.9804066955146635e-01  2.2241987092910168e-01  2.2860428168895444e-01  1.9789162583532460e-01  1.8427541361373265e-01  1.9848285484881290e-01  1.6360991126680111e-01  1.7187247414882129e-01  1.6435320818278690e-01  1.8614505833713635e-01  3.3798128838013347e-01  3.2703921952641002e-01  3.0979616760497197e-01  2.3460551210755573e-01  2.5457207582837832e-01  2.6364183504451077e-01  2.7160331831888290e-01  2.7496862822327744e-01  2.4662203903390068e-01  4.1957049543519559e-01  4.2897952444217508e-01  4.5048713155085962e-01  1.0797412531219967e-01  7.6875684972565569e-02  1.1353795317036497e-01  3.3929137420988115e-01  3.6163457113536768e-01  3.3265376620712178e-01  2.2734368969416899e-01  1.9372086858347468e-01  2.1596681348134131e-01  4.4991379916041946e-01  4.4096212280399927e-01  4.1877233192410079e-01  5.8940276204448117e-01  6.0690014819318017e-01  5.8674370075850668e-01  6.9200305189155498e-01  6.9014670764314567e-01  6.5660123626027955e-01  6.6185506981236519e-01  6.7894469178093630e-01  6.8623538521713812e-01  5.8478990512998363e-01  5.6276274895760225e-01  5.7750824636452847e-01  3.6234474896041563e-01  3.5883094396646348e-01  2.8052436905896744e-01  2.5471930134684084e-01  3.0103168710888134e-01  3.4377767538678561e-01  3.7901946200945430e-01  3.5153929953648128e-01  2.5685721520463750e-01  2.3993200264212688e-01  2.3444185039970428e-01  1.5933527929376989e-01  1.3871551079301353e-01  1.1784126733880973e-01  8.1223749527860711e-02  7.6725348973927590e-02  1.0056303015310977e-01  1.2622717452444102e-01  1.0385139444277497e-01  1.2828103604090371e-01  3.4584228696837416e-01  3.2662614656535871e-01  3.1548322649410099e-01  9.0700728022830968e-02  7.9416366330489541e-02  6.5273595827899808e-02  1.5047691102986629e-01  1.7887788664121165e-01  1.5670454546507803e-01  6.7481261691197980e-01  6.7734002025571516e-01  6.8206951793374093e-01  6.6857895192491013e-01  6.7029079160218097e-01  6.6243149353830744e-01  6.4380596320386774e-01  6.3207944237114844e-01  6.2316635167495604e-01  3.6409531174218157e-01  3.6253198243836099e-01  3.8430532988943300e-01  4.9997008385692598e-01  5.2345827214112983e-01  4.7801573484908289e-01  4.9631085879123171e-01  4.6457645174259149e-01  4.7209298168599095e-01  4.8395775703320548e-01  4.2883654899732687e-01  4.4839621428411602e-01  4.5966372050317206e-01  1.9546149478263486e-01  1.8963672919242544e-01  1.6787825323284966e-01  5.8463420040607994e-01  5.6472385779189904e-01  5.8878062961355304e-01  6.0238135530650649e-01  6.0273718164468326e-01  5.4511257079155229e-01  5.4074416871521036e-01  5.2447726306178322e-01  5.1467220686929438e-01  4.1166982985648429e-02  2.9490054816019764e-02  5.1294579784018822e-02  3.9081808361823583e-01  3.7389449321277307e-01  3.5324614471235688e-01  3.0169493623148047e-01  2.7432847272544275e-01  4.5104823908423471e-02  5.3052837477452354e-02  7.2095926353576159e-02  2.5707031883944931e-01  2.9254247686048551e-01  2.7336422287912315e-01  1.9064864719942101e-01  2.1973914447088327e-01  1.8399476202014922e-01  8.7821855629455964e-02  5.6894904486804954e-02  6.2035713463846613e-02  6.4102545986634049e-02  8.9833332682436484e-02  6.4285624877011949e-02  4.2334747848690396e-01  4.1899218071578542e-01  4.4860156895575765e-01  5.5870925801549087e-01  3.7080242471340247e-01  3.6351972240297487e-01  3.4395882172230308e-01  4.3185382791369453e-01  4.7125421070658813e-01  4.3071755783027366e-01  1.3218602049464720e-01  1.2016080535371505e-01  2.0198395005732797e-01  2.2822012663869604e-01  1.1052352118177365e-01  9.1108968581634184e-02  1.1492297650143021e-01  4.6355315960936189e-01  4.7824543556737781e-01  4.8751975470425807e-01  2.8032938942408953e-01  2.8897168339504486e-01  2.6379205696592978e-01  6.6661424738317165e-01  6.8023018405896474e-01  6.7414903727558650e-01  1.2956486642768339e-01  1.4502969896653520e-01  1.5286908620663009e-01  0.0000000000000000e+00  0.0000000000000000e+00  5.7207652027589850e-01  5.9014781946270634e-01  5.8448259070192587e-01  6.6713297846285013e-01  6.0032260891284839e-01  5.8500578079279542e-01  6.0969546226750981e-01  5.1357430574994256e-01  5.1291915131853760e-01  5.3300604421386533e-01  3.0832722263142076e-01  3.2974998285944007e-01  2.9057029765487719e-01  3.3509307179674330e-01  2.4473288833545875e-01  2.1618161779396802e-01  2.3264072844697223e-01  3.0038077352949116e-01  2.6126933770755040e-01  2.8572442405275134e-01  3.9001091348667183e-01  3.6729055688740864e-01  3.9224166493589846e-01  0.0000000000000000e+00  1.8219299777503976e-02  2.0139764026931184e-02  4.3644030139220698e-02  2.7939017467604129e-02  5.3736663750507598e-02  2.9550049089334163e-01  2.6968874316830210e-01  2.5060244503875911e-01  1.4806791261784943e-01  1.2752678651859695e-01  1.8191041890997622e-01  1.7530343027330075e-01  6.0472762762716237e-01  5.9263972991480440e-01  5.5376305052639252e-01  5.3380528226434454e-01  5.4248260265198212e-01  5.5143500151452252e-01  3.5532725858174830e-01  3.2758289910876304e-01  3.4168650986094690e-01  8.3925788128349693e-02  8.4581948603697069e-02  5.6961673943846672e-02  8.7866449970582489e-02  6.8593456588965473e-01  6.8705729573748442e-01  6.9035666961064024e-01  6.9038258404919794e-01  2.6228476307413640e-01  2.8499109247762822e-01  2.7503987701205013e-01  4.8346728243407799e-01  4.6217409571991369e-01  4.9787614126440766e-01  5.8294875982593086e-01  6.0445457166543404e-01  5.2062683601038162e-01  5.1982809560260568e-01  5.4564194968248347e-01  2.1078560259342086e-01  1.2877834555898990e-01  1.5905688906188251e-01  1.8150045298838044e-01  1.8161667968608117e-01  1.1715367064575632e-01  3.5748137993995061e-01  3.6356586969186000e-01  3.3404772099438396e-01  2.1832294542816921e-01  2.4571314601546804e-01  2.2598451965558361e-01  2.1233540671866499e-01  2.1488746546283954e-01  5.9626759275808972e-01  6.6254113126540737e-01  6.6429147393840360e-01  6.7009480134437183e-01  2.2917137187583386e-01  2.5639121426185563e-01  2.6840875501515377e-01  1.7081692128106787e-01  2.1065021621719621e-01  1.9026230493549584e-01  3.4830914805909566e-02  1.8884564063487468e-02  6.6710125656671670e-01  6.7861177662238725e-01  6.7965078486183872e-01  6.3043641325498001e-01  6.5081532223174121e-01  5.7143289639296635e-01  5.5684832001176265e-01  6.0448806926358634e-01  6.2446047975753782e-01  6.1093545029632057e-01  6.1615273986667540e-01  6.2482649902700960e-01  6.3844918047320764e-01  2.8010569596983370e-01  2.8029230648403891e-01  2.4883423535831803e-01  6.7448570609263625e-01  6.7118549323708654e-01  6.7969359283240105e-01  3.0716999409496909e-01  3.0922211013492162e-01  2.8113980536549965e-01  5.8765685024227521e-01  5.7885361652192768e-01  3.6106432171871400e-01  3.3145761503541354e-01  3.5650891582926364e-01  3.8536924221614816e-01  4.4564336223241324e-01  4.5694711441750124e-01  4.3976611662749787e-01  4.6406703351540618e-01  4.5519555249793087e-01  4.3783023870712562e-01  4.2065441120301694e-01  4.4521821089334007e-01  4.7617429619901974e-01  4.4539925148604254e-01  3.9507967139464706e-01  3.9373562800844791e-01  4.6994830629204137e-01  5.0456366863437596e-01  3.5527317588310792e-01  3.5084091614843765e-01  4.0124193568008920e-01  4.2421966210701750e-01  1.5352440059064365e-01  1.8677700678282924e-01  1.7586550389662556e-01  2.7697725081879498e-01  7.7965232152248251e-02  8.3464172743153944e-02  6.0468194097791431e-02  6.9290316160058679e-02  1.0054056518462713e-01  7.7743898691864169e-02  5.7406402573824555e-01  1.5946514095823378e-01  3.0457145506288091e-01  6.7139607738712048e-01  6.6082437847048126e-01  6.8177920027159655e-01  3.5594709731134233e-01  3.2964295160638790e-01  3.6073538683987350e-01  3.8771482075844677e-01  5.6416662569242056e-02  6.9810291380883280e-02  8.8047483088294132e-02  5.7433092702103095e-01  5.6359937891036083e-01  4.9657590815474817e-01  5.0336047331795875e-01  4.0573826242476890e-01  2.3973771009723466e-01  2.2488055685469932e-01  2.6454902890007898e-01  3.3044345779665800e-02  1.6104351503042097e-02  4.8806226742866859e-02  1.4548690426483818e-01  0.0000000000000000e+00  2.2324798480450471e-02  0.0000000000000000e+00  1.2076099627485190e-01  9.9649939705591981e-02  9.6741445074633101e-02  5.1576758583407623e-01  5.0059719971788419e-01  5.3963583749507438e-01  5.1404368458352367e-01  5.4359894775329864e-01  3.6679005394207043e-01  3.9971969753648445e-01  3.8633924923838919e-01  4.1767956094020975e-01  5.1968251319136849e-01  5.4358824907158132e-01  5.2316211580757011e-01  5.0526044036737972e-01  4.8729253550387902e-01  5.0864116093378775e-01  1.7576315925925998e-01  1.9936158069477189e-01  1.7545969358003469e-01  6.2372102389871772e-02  5.2766122233300308e-02  3.7919186660692460e-02  0.0000000000000000e+00  0.0000000000000000e+00  4.2921727652504578e-02  2.4092625652837554e-02  1.0636174989972805e-01  1.0890241172665313e-01  6.1090247261368927e-02  5.7067149719192675e-02  2.8006601309041361e-02  0.0000000000000000e+00  0.0000000000000000e+00  2.8455579952617982e-01  2.8588941607699148e-01  2.6078408981630280e-01  6.6641128170766573e-01  6.7486287998954897e-01  6.5152489069229358e-01  6.6086803588183696e-01  6.5079516795361336e-01  4.1287368299397870e-01  4.3390220106812394e-01  4.3897402906188548e-01  4.9775673476967908e-01  5.1382191936292398e-01  2.4163390834499396e-01  2.6474699687090819e-01  1.7280836350557111e-01  1.6851845402956908e-01  1.4209353106816727e-01  3.4828835665281038e-01  3.2561859374329394e-01  3.8384735667705139e-01  5.2346457244148925e-01  5.4000379048885749e-01  5.0846311033959046e-01  3.0473943497093886e-01  2.5968466556553049e-01  2.2009798860671159e-01  2.5280322533857702e-01  2.8554185615601746e-01  3.1072356390090450e-01  2.8734799927319382e-01  1.5302817170009261e-01  1.2625978311929273e-01  1.1007775835921731e-01  6.8889351228421913e-01  6.9042229342887951e-01  6.8669814948171859e-01  6.8586556954362421e-01  6.8829745611251458e-01  1.1355844674066062e-01  8.6322934720281838e-02  6.8722722686754689e-01  6.8382807766896525e-01  6.6486223981043491e-01  6.5713046881016024e-01  6.5504010812217672e-01  1.1999545265312345e-01  1.5297551548442126e-01  2.0065418483719039e-01  1.7172240084350524e-01  2.0209704093781747e-01  3.5183686418016745e-02  3.2599126964205062e-02  1.5941562898440911e-02  4.8923408639712174e-01  4.5936352301229277e-01  4.4121985800908936e-01  4.3545998233597122e-01  1.1007194088172487e-01  9.1775023215763987e-02  2.9800354017173812e-02  6.2265781713062150e-02  3.7040822061450657e-01  3.3085452467902610e-01  3.0000843258730509e-01  7.4871683138269418e-02  1.0432375002023722e-01  1.0227414720385058e-01  8.2448677344592214e-02  6.9703234737330200e-02  1.2323926898529622e-01  1.4898279869717776e-01  1.6521409230837097e-01  4.5120795374766313e-02  2.7571179174568323e-02  2.3556599605487515e-02  5.9690725392199946e-02  6.7918754909835422e-01  8.3071470004643905e-02  6.0680027586354816e-02  5.8853004471912017e-02  1.1154428839310285e-01  1.0248335278686820e-01  5.8734775421747742e-01  4.4524303891529315e-01  4.2075418815283055e-01  4.2244324466530703e-01  3.8836005222986558e-01  4.3301432219566566e-01  4.6801912965365400e-01  4.9476889608595259e-01  3.9299001413101352e-02  3.5538718721295152e-02  5.9415079633954693e-01  6.1335660071430820e-01  5.9708145781412503e-01  3.8671837689548599e-01  4.5034351882466855e-01  4.2470979994827573e-01  2.0208986766719797e-01  6.5919462856332600e-01  5.3262171769285149e-01  5.6270542956671621e-01  6.2311349063453780e-01  6.4518701126925515e-01  6.3479892064273813e-01  6.2479909887594220e-01  2.5384048728590985e-01  2.1479226535837082e-01  2.3257717499682604e-01  2.5004761076047810e-01  3.6154491130446742e-01  3.3521743921577668e-01  4.0476146522910522e-01  4.2212912956839471e-01  2.5327323097904830e-01  3.3851697654754948e-01  4.3123850572920286e-01  4.5416512545495041e-01  4.0056034375523492e-01  3.9190876197197511e-01  6.3986100342652164e-01  6.5025856516936997e-01  6.4678352553675833e-01  6.4937279059355535e-01  1.5002472078172271e-01  2.0470205305939540e-01  2.1218868102839589e-01  1.7755232615203856e-01  2.3955372430938031e-02  1.6912717693708337e-01  1.3875230117379025e-01  1.1717156631909725e-01  1.3085737207637677e-01  6.6169269674110265e-01  4.2392241711735675e-02  5.6325682232064328e-02  2.0259023286554156e-02  4.5336583436746775e-01  4.2331299772451852e-01  4.5246873413961375e-01  4.6766189840742040e-01  4.7624148706294017e-01  6.8982235688381954e-01  6.8317007000541252e-01  6.3584197754193650e-01  6.2734508644219189e-01  6.4065991448388426e-01  6.5142527279231321e-01  6.3456012224143521e-01  6.3782710803862808e-01  4.0673712180510380e-01  4.0953822082545216e-01  3.5822713843897824e-01  2.3466208894942603e-01  2.2318391189860198e-01  2.4394092569983655e-01  3.8299792801476296e-01  3.7366465918234870e-01  3.9995094717696239e-01  3.9619018614590645e-01  3.7037545519769555e-01  6.4923011232315675e-01  5.9348204744038624e-01  6.1576717494562994e-01  6.0149854131649649e-01  5.9272729607849339e-01  1.0890811913773805e-01  8.4270725742239816e-02  1.1336347449012883e-01  4.9437836349156639e-01  4.7339015860948025e-01  4.7264510216030453e-01  5.7573514818391403e-01  5.2308099967300414e-01  6.8342831739957322e-01  6.4921623963512398e-01  6.5222969611068060e-01  4.9843834713241475e-01  4.7554487310253540e-01  4.5017480539030957e-01  2.2148581394343589e-01  1.7174861223250235e-01  1.1742550542824440e-01  1.4356913367453891e-01  1.3600036080475431e-01  1.2118572483619336e-01  0.0000000000000000e+00  1.9104637160986440e-02  4.3416810067844820e-02  4.7490490710089733e-01  4.4938560680604700e-01  4.6233964685247109e-01  1.3516852224743875e-01  1.9611672357750284e-01  2.3597322527564310e-01  5.4185863126514389e-01  5.1303119658661100e-01  5.2887960913638299e-01  5.1612601305475292e-01  4.9237070132088384e-01  4.9494879457620616e-01  4.6750922881489348e-01  3.9224933221811087e-02  5.4135877133850700e-02  1.0522228190662331e-01  1.9195154860978395e-01  2.0326748736116304e-01  2.2483083169063836e-01  2.2378417723227254e-01  6.3391743035079584e-01  6.4192426740518416e-01  6.2847760514477768e-01  5.6500253387311461e-01  6.1489328407637329e-02  6.7309764486230161e-02  6.8659515657287562e-02  9.3270333903139102e-02  3.6729342656287134e-01  8.7940548975080940e-02  6.9196815441068413e-02  6.3292397048415758e-02  8.7814247401442586e-02  0.0000000000000000e+00  1.7345963566552523e-02  2.1179895234183049e-02  4.1128858466484719e-01  4.6987026026765488e-01  4.9440443565004932e-01  2.2610302336731025e-01  2.7380120900974675e-01  2.3775118145238913e-01  3.0737130116590983e-01  2.8101355389197791e-01  5.4936684065191166e-01  5.6369623090925747e-01  2.1430779435393205e-01  2.8051515653863740e-01  1.7081813067279658e-01  1.9798526156387308e-01  2.7637152590745140e-01  2.8397205933089825e-01  1.4149677436620411e-01  3.8681083180125017e-02  3.3514632621832983e-02  6.6710760208702813e-01  6.8330244134598239e-01  3.2069434183415957e-01  3.4489788394929816e-01  3.2126154373731458e-01  2.9441220359945525e-01  2.7564415871910741e-01  3.3207212151587319e-02  3.7275500499142036e-02  2.7130089636228521e-02  7.2647257139289767e-02  6.7411108645148640e-02  1.3980766763900432e-01  1.6449256791955277e-01  6.6039140329068313e-01  6.7350470314775157e-01  6.5610776957129069e-01  6.7564426598457272e-01  6.6533365541166911e-01  6.7438023979114670e-01  6.7102802532089256e-01  2.9358837639884305e-01  3.2543999687076691e-01  1.3618237853268542e-01  1.1413687428170134e-01  1.2852602580241959e-01  4.1919609290833611e-02  1.8875195680739712e-02  2.2808850630637860e-02  3.9993649991782998e-01  4.2222942719717010e-01  4.7418485297509999e-01  5.6162250866596253e-01  5.6235638952433442e-01  5.4143303033542689e-01  2.1230993496270389e-01  2.2262296746267424e-01  2.3730279334302909e-01  7.2341036057529590e-02  0.0000000000000000e+00  0.0000000000000000e+00  2.9786914889734624e-02  2.3782408482990000e-02  4.9052154043345597e-01  6.6752289099746720e-01  1.6143184377410130e-01  1.9126772099259864e-01  1.5939632900586095e-01  6.1910480419861824e-01  1.4459323529808299e-01  6.9301571005670332e-02  5.5349821103636276e-01  5.7423657540339945e-01  5.6979254450230088e-01  5.9371610867266778e-01  5.9355724985182490e-01  5.7640802342820163e-01  5.0492659904694293e-01  3.9979922272470636e-01  6.2707599212411091e-02  9.5511001994612460e-02  1.9257568266406599e-01  3.5518037273212638e-01  3.5976258412826784e-01  4.3619796160237495e-01  6.3724476980437594e-01  6.2582162215339510e-01  5.1758917472529786e-01  5.5168915961452447e-01  3.3450634526310713e-01  3.0578873102686444e-01  3.2542467402073594e-01  1.5942270844896209e-01  1.0845201522030291e-01  4.0039903289370994e-02  3.9973496389885531e-02  1.6957790253876844e-02  4.3963680403401977e-02  2.0011308834645306e-02  6.1132644784290624e-01  6.0149023288267678e-01  6.7426876772870514e-01  6.7322347615361222e-01  6.5976573031596253e-01  0.0000000000000000e+00  0.0000000000000000e+00  5.8788028115397704e-02  3.2745554809051308e-02  2.9685356875171948e-01  2.451023094