<?xml version="1.0"?>
<VTKFile type="UnstructuredGrid"  version="0.1"  >
<UnstructuredGrid>
<Piece  NumberOfPoints="4266" NumberOfCells="8278">
<Points>
<DataArray  type="Float64"  NumberOfComponents="3"  format="ascii">0.332914414052326 0.6495186433047222 0  0.350035852606398 0.6547949268996196 0  0.3447079687368382 0.641666296524555 0  0.1509629198243326 0.4394805475385499 0  0.1574618691699577 0.4256374769288144 0  0.1639598037427407 0.4371351587205499 0  0.3398416053252553 0.809393929507541 0  0.3182425982666752 0.8112424579812687 0  0.3303994577747308 0.8261781287051263 0  0.2807025901357054 0.7290648010030609 0  0.2693712444400472 0.7397307729917455 0  0.2675171021349819 0.7264088643605077 0  0.5829764460070728 0.4876477017753671 0  0.5636631415662405 0.4806275825024552 0  0.5760180926912839 0.471876660868964 0  -0.1271013736123637 0.8128950760141003 0  -0.1445811026190907 0.8119118999057399 0  -0.1316347946497995 0.7953214846907589 0  -0.4581654891279018 0.7050956478196405 0  -0.4495185704017219 0.6919162010453052 0  -0.4448129225315993 0.7121783443626279 0  -0.1880292666509401 0.6948349589189414 0  -0.2018759567934805 0.679511249409967 0  -0.2024562418194335 0.6939534755125041 0  -0.2140543535049902 0.8855533563615821 0  -0.2177606820535586 0.9056463175150016 0  -0.2018623987848239 0.898190586260888 0  0.4322090051131867 0.6624612598186196 0  0.4146876010546104 0.6789232817918601 0  0.428503716053142 0.6848116787928238 0  0.4029812328035552 0.8407687967874943 0  0.4051394625148355 0.817767417981298 0  0.4178977239794076 0.8281891941993458 0  0.006078813178473639 0.7670889272345903 0  0.02260651009724353 0.7633305111235777 0  0.005125719913978016 0.7490533914639859 0  -0.1571199485664077 0.7620018712563817 0  -0.1746605350189528 0.7770146890610292 0  -0.155743362764028 0.7794691025403202 0  0.1413607558117983 0.4630356083621213 0  0.1374150801464661 0.4794310028365596 0  0.1232856871789455 0.4639250448759384 0  0.06256031293062904 0.8302272950216463 0  0.04798720663564734 0.8386697515782279 0  0.05348580465792466 0.8161067716706272 0  0.07804752670323852 0.6400824141788281 0  0.06033342557497019 0.6526757464603348 0  0.07854531892308642 0.6595378398448787 0  -0.507622037525672 0.4070516661891727 0  -0.5081901160223834 0.3899509166143055 0  -0.4921674949269925 0.3987316133739493 0  -0.3068319627397568 0.1582865587979037 0  -0.3296560711934549 0.1619170474326295 0  -0.3168146285735117 0.1716618704250606 0  -0.4586196893549722 0.5584655526438173 0  -0.446943582453926 0.543154611764088 0  -0.465633660949158 0.5453818001333602 0  0.3831414326149375 0.8107099352150432 0  0.3753817424581156 0.829695642271972 0  0.3920273310628238 0.8281390440289584 0  -0.6749085222138679 0.334411519106221 0  -0.6637201098489627 0.3140132042669073 0  -0.6795939777218857 0.3185739991614875 0  -0.5791130661390927 0.7346014223532424 0  -0.5933681133834627 0.7381717694620178 0  -0.5748132513880116 0.7473695803479472 0  -0.5391069590138896 0.745165717765377 0  -0.5625738666025707 0.7530008968499093 0  -0.5578514271746238 0.7321226777682319 0  -0.2413621327137381 -0.1523138363781986 0  -0.2268202344970037 -0.1591382524790036 0  -0.2412464607625224 -0.1671917300371307 0  0.09927902037336662 0.9149708283062259 0  0.1157895516840189 0.9189776608398325 0  0.1063134374874596 0.9315309264794555 0  0.06116446405179456 0.4911833230803823 0  0.07730596882940004 0.4742920138205912 0  0.07830662548657039 0.4953344334897695 0  -0.101240928421921 0.758652892213407 0  -0.1126561174512113 0.7679041581977381 0  -0.09347689488007802 0.771127355971357 0  -0.6440398227190394 0.4357239888300835 0  -0.6359504943829237 0.4555801607307075 0  -0.6328217507707823 0.4415406738647967 0  0.7263802803538117 0.5631043356200172 0  0.7108704287310817 0.5595900727741592 0  0.7242940159102983 0.5425933715166618 0  0.5038718219523224 0.5544334551657892 0  0.4877560869605388 0.5396871818096673 0  0.5044160012643252 0.5319783219067643 0  0.07081074097663426 0.3186286742512116 0  0.07346941078982666 0.3401307037044159 0  0.0576197784904541 0.3239018341387644 0  -0.3005413308806231 0.1129696382239433 0  -0.3192043351541243 0.09836040108305644 0  -0.3187938517836389 0.1170614402710302 0  -0.04851146773134357 0.4867872264827524 0  -0.0472247571585732 0.5033083754239025 0  -0.06335753174075238 0.491934542470062 0  -0.3892070283047418 0.4786861355265704 0  -0.3714027727299681 0.4756864802956608 0  -0.3827974118685362 0.4623921713509622 0  -0.7411095007633245 0.575029805494202 0  -0.7605003164559296 0.5782101812185654 0  -0.7488870496543684 0.5883132185438822 0  -0.7235805144123104 0.5200565098232155 0  -0.738618812363851 0.5236972966413135 0  -0.7284642311301335 0.5327625764414463 0  -0.2314719560991426 0.03549491619166019 0  -0.2303332909622441 0.05439758634173875 0  -0.2400458841910318 0.04549702594926252 0  -0.008296326578782015 0.6086478568131694 0  0.01122982598345495 0.6123443607668545 0  0.003980826942925998 0.5972159239537265 0  0.01371423415457438 0.8573404176908449 0  -0.002794414052867285 0.8659378714417731 0  0.007843166883866432 0.8762473671836795 0  -0.06939556685310261 0.8588521408268257 0  -0.05948654623964005 0.8457213462672603 0  -0.0557236259197124 0.8588652639392508 0  -0.4589833292911141 0.5816849370690288 0  -0.4476215744943611 0.5677693785034353 0  -0.524949258381664 0.6828407606378746 0  -0.5150187895388144 0.6625705724119358 0  -0.5088018694929584 0.6781838611669838 0  -0.2818430264076795 0.0003382359467896529 0  -0.2652744050783558 0.01201766272913534 0  -0.2792800812328205 0.01792173624780021 0  -0.1375645435999634 0.02928053735830581 0  -0.1393867504822479 0.005795814591015106 0  -0.1580085151925672 0.0190537538730686 0  0.3315205285923649 0.4671007065140736 0  0.3125911820565935 0.4627236293547771 0  0.3198711767839099 0.4743601478668478 0  -0.4416327711127045 0.528188803075854 0  -0.42043207916408 0.5325084464725358 0  -0.4211118506379022 0.5184623300457841 0  -0.400894961242765 0.448519227309272 0  -0.3795398849611781 0.4381803585696618 0  -0.3779683559246526 0.1015844903635233 0  -0.382531330591133 0.08930344838901749 0  -0.3910048287120285 0.102886453132009 0  -0.3869421348601627 0.1749260482753183 0  -0.3757026843568829 0.1541503186649135 0  -0.367050066625653 0.1705222421176009 0  0.1697279419526465 0.3618104710983251 0  0.1894767621098231 0.3621593301494297 0  0.1766148606453463 0.3766321490635753 0  0.3175555361844976 0.6203848435927939 0  0.3345552866765177 0.6089124536076582 0  0.3249698706754737 0.5980365821192262 0  -0.1339413446256386 0.5457851785332439 0  -0.1526445775437433 0.5334441245528644 0  -0.1392346425806756 0.5326434877740723 0  -0.06425900875333679 0.4688403081854889 0  -0.05529929859147319 0.4516548662966833 0  -0.07615422062026381 0.463903402603304 0  -0.278483283260311 0.9185916019998196 0  -0.2956452215663841 0.907791082738426 0  -0.2823823305480626 0.9057518061522771 0  -0.3559212036505843 0.9070901940436692 0  -0.3342343936343474 0.9064002935227704 0  -0.3444887802934804 0.8952572882561013 0  -0.4224693536609981 0.7183353876298264 0  -0.4061482044249017 0.7039694892534414 0  -0.4025148468220963 0.7174557197369782 0  -0.2991768288254021 0.681309361225804 0  -0.2858448756879212 0.6885781091268239 0  -0.2869886080834934 0.6748151268474881 0  0.6782774147583657 0.7337563733932891 0  0.6645157295220289 0.71750992948401 0  0.6635479539083358 0.732281388692918 0  0.5867961229040197 0.5340133274712827 0  0.6002916769092745 0.5300916477538961 0  0.5929900107960145 0.5466215950402394 0  0.5159544060005026 0.6878176699708392 0  0.5122479088226618 0.6710487157848961 0  0.5030023430927832 0.6818864003643841 0  0.4208129660769374 0.7369214216995047 0  0.4161219642283353 0.7186054954352281 0  0.4034166386965947 0.7287978348653198 0  -0.05058840002958302 0.01664330261368143 0  -0.06782801487027172 0.01105825813027281 0  -0.06060561770281364 0.02607735719710087 0  0.08164933247143509 0.2630011494424497 0  0.09369464683973068 0.278533427859859 0  0.09810693527780626 0.2626749665166973 0  -0.1504872407416525 -0.1421626572733334 0  -0.1705165659739513 -0.1404373886184603 0  -0.1604755106946349 -0.1572460092334305 0  -0.1447129275324389 -0.106482705958092 0  -0.1419853542253846 -0.1252313490297633 0  -0.1561372649653827 -0.1177174579139968 0  -0.6951576928890359 0.4758963864002503 0  -0.7106723235953296 0.4708123916406384 0  -0.699431420230763 0.4627236578561629 0  0.4755169449756932 0.4909210876291945 0  0.494127149468629 0.4844880490678379 0  0.4892709553865416 0.500574861277703 0  0.4467729628007534 0.4663817228064593 0  0.4560778556466092 0.4845867088651602 0  0.4631507151083092 0.4694912030156104 0  0.2128942583195763 0.2644806730761504 0  0.2247761344637584 0.2517453977254175 0  0.2091130426491661 0.2490423695972016 0  -0.2875481774750799 0.09537363130635237 0  -0.3034182525195322 0.09642190706859868 0  -0.4515202253909735 0.2025862122920294 0  -0.4386405423918204 0.1828638087383335 0  -0.4523337628777539 0.1879882033728548 0  0.2794138014287033 0.9317363626854627 0  0.277358580676769 0.9472805712477746 0  0.2900975625439389 0.9410569185089307 0  0.2567741049371187 0.9104522999621892 0  0.2404500137637132 0.8947278027972118 0  0.2649032218030534 0.8904103733438133 0  0.2242467665771498 0.448158124301501 0  0.2295529427779222 0.4342960624490632 0  0.2385612639111096 0.4520321359849135 0  0.1170643917672381 0.3566870190192344 0  0.1110106043840692 0.3391497435850614 0  0.1240090541008423 0.33598826927084 0  -0.0790543871400315 0.492648131300411 0  -0.06321789373789302 0.5076469891182717 0  -0.1680294870233596 0.3033125654794206 0  -0.1522463381690819 0.3173597305697894 0  -0.1656108268022235 0.3252530803521215 0  -0.5328934950392848 0.8042508636529442 0  -0.5158006838270621 0.8085421858525899 0  -0.5267114469912973 0.8158140225539202 0  -0.4984766512980752 0.7147319776453481 0  -0.4961536227570694 0.7365122789311654 0  -0.4854796835698065 0.7259824008309884 0  -0.7453748565371457 0.449346994057572 0  -0.7497203529707557 0.46785017658
[...]
<PointData  Scalars="f_3411-2"> 
<DataArray  type="Float64"  Name="f_3411-2"  format="ascii">3.0751211965757153e-01  2.9182598530814780e-01  3.0936950291463833e-01  6.3516747404076945e-01  6.4749327026881298e-01  6.3259843397084548e-01  1.3051596254138537e-01  1.3780766477331097e-01  1.1695971073624789e-01  2.4423214494244225e-01  2.3696404536484617e-01  2.5292389192870801e-01  2.7012468566193143e-01  2.9403203249859922e-01  2.8918754221357096e-01  1.9437063580467562e-01  1.9213295146725570e-01  2.1417733315212251e-01  1.7309566390492204e-01  1.9159590688148728e-01  1.7444308370883344e-01  3.2008733848182480e-01  3.3373995474183288e-01  3.1619330630864123e-01  9.3295937751216071e-02  7.1155814111723281e-02  8.2897741900257366e-02  2.3249393002282345e-01  2.2694880681847715e-01  2.1216591154156514e-01  7.0114983139196688e-02  9.1621530433774315e-02  7.5190321930483597e-02  2.6153226467124779e-01  2.6574433884630000e-01  2.8367597567969016e-01  2.4818883015385115e-01  2.2589001519349167e-01  2.2775500929683362e-01  6.1254370135387004e-01  5.9525896024454583e-01  6.1725414533958645e-01  1.8282130005977829e-01  1.7404196805640199e-01  2.0021656511758024e-01  4.1442909795090355e-01  4.0102101635807980e-01  3.8993298389968301e-01  4.0701789804330035e-01  4.1980166729500462e-01  4.2884606979176476e-01  7.6216713829694860e-01  7.4064867663507372e-01  7.4738445134791243e-01  3.1653321179324895e-01  3.4057288027297478e-01  3.2340253332234337e-01  1.0928864143129671e-01  9.3769659973147707e-02  8.7633625687172118e-02  2.7862607476880763e-01  3.0209967393722542e-01  2.8178754985232413e-01  6.6837441952453280e-02  5.4281824103265444e-02  5.8886324757502488e-02  8.3838478933903254e-02  6.1965737034723217e-02  8.3016393538980104e-02  8.1579830311294432e-01  8.2252555972325248e-01  8.0892230185476321e-01  8.3247402070511956e-02  7.6691021099692863e-02  6.4381754312438824e-02  5.9972246024920695e-01  6.1673969232009052e-01  5.9199226782098413e-01  2.6373755742081967e-01  2.5049433786513642e-01  2.4964123005357375e-01  2.4870331513429464e-01  2.4300623137925864e-01  2.5597801050423880e-01  8.4524356933756803e-02  1.0033000592088316e-01  1.0017104937487051e-01  2.8362316506739432e-01  3.1054009687746592e-01  3.0348708883285541e-01  7.7990656392276336e-01  7.5961050321315660e-01  7.7744400337481301e-01  7.8478873903583968e-01  7.7284188728753578e-01  7.6752640565195995e-01  6.0654837061354827e-01  5.8714677773736823e-01  5.9847763221656858e-01  4.4956834994056799e-01  4.6649493942676307e-01  4.7053234822519824e-01  6.4054160825392295e-02  4.5535467725605142e-02  4.8772486558651407e-02  1.1560822020350547e-01  9.9552387434642842e-02  1.0274196936909256e-01  8.5502880929048952e-01  8.5329165468452584e-01  8.4767172540974800e-01  4.5999618808417075e-01  4.5524565676242928e-01  4.7432392765582637e-01  1.5385655871528858e-01  1.4397959277727218e-01  1.3225025103760532e-01  1.4900826147435808e-01  1.6494992403644151e-01  1.5009866163791580e-01  2.9376872874569943e-01  3.1601167182783463e-01  1.4942729527163254e-01  1.7502161554187379e-01  1.6492216057070055e-01  8.1877860543260650e-01  8.3175808583664046e-01  8.2023829399116921e-01  9.0872123007923267e-01  9.0924969392320087e-01  9.0009344306493944e-01  5.0489486546563878e-01  5.2278216584421389e-01  5.0570251714004555e-01  3.5936482966268402e-01  3.7197837936299827e-01  3.8524056036751658e-01  4.6895381679379461e-01  4.9633036513071044e-01  7.1590157427878087e-01  7.1435932236111577e-01  7.0214619782245413e-01  6.8025288654168048e-01  7.0036644989154406e-01  7.0179573072038792e-01  7.0724327215360006e-01  6.9748808648776295e-01  6.8966083058990457e-01  3.4875074197659084e-01  3.5145740710709056e-01  3.6920377033111551e-01  5.1835766085830859e-01  5.2712220692828138e-01  5.3239866530847657e-01  6.2534238558041133e-01  6.4621660039096462e-01  6.2881238041418386e-01  4.0839138610204322e-02  4.6217728037185962e-02  5.2601328904657386e-02  2.5774569833192703e-02  3.4219976362433201e-02  4.1454245867705602e-02  1.8191692752256092e-01  2.0630926610536351e-01  1.9447909746195363e-01  2.8987422695478421e-01  2.8800307709225326e-01  3.0326262138102167e-01  0.0000000000000000e+00  2.1831514951851018e-02  1.1464458838002921e-02  2.2954729055804812e-01  2.2052397134023807e-01  2.1381050992375497e-01  1.5107703116412835e-01  1.6919234454408236e-01  1.6552214846146121e-01  1.6402616690004379e-01  1.8535777625011041e-01  1.8233073957859403e-01  9.3535830743209103e-01  9.3240933021424921e-01  9.3286496997200152e-01  8.2400532894752410e-01  8.0865189420801620e-01  8.1980271051650488e-01  8.7318513130273268e-01  8.6410676261983865e-01  8.6152166117762119e-01  8.8922537010470970e-01  8.8384803262373823e-01  8.8015474290944873e-01  1.7125773073832870e-01  1.5957390821879805e-01  1.7563809972985242e-01  3.6567657475138066e-01  3.5488012556969839e-01  3.4491329717355523e-01  4.1319950106261910e-01  3.8833706514067545e-01  3.9583656984734622e-01  7.6764658676151609e-01  7.6956693813600308e-01  7.8093134316444413e-01  8.0094287784436702e-01  7.8714445803345945e-01  5.9983849074064488e-01  6.2289979027528652e-01  6.0578132525183881e-01  2.7463168025434123e-02  1.2628134490653791e-02  1.4882833125721697e-02  5.5587748707217867e-02  7.6474231841057269e-02  7.3754955620545348e-02  5.9241641859601846e-01  6.0410034401298485e-01  5.8039145950569548e-01  7.3234718623475259e-01  7.5081458504607379e-01  7.4964554347053947e-01  5.9504390856292710e-01  5.7990734769433216e-01  7.6073219687558802e-01  7.5566682592000745e-01  7.4279602667984990e-01  3.5769101903971472e-02  4.1677047130088379e-02  2.8966084194775889e-02  1.3784582096007700e-01  1.1890912735823315e-01  1.3561700618628400e-01  1.3899786291933519e-01  1.2386160862415642e-01  1.3990254817963860e-01  7.3412159779499686e-01  7.1123023808601549e-01  7.2542439797552705e-01  3.2515062842840420e-01  3.4163436682948101e-01  3.1118678383428061e-01  3.1997491795599647e-01  3.2711847710544351e-01  3.8097774407540663e-01  3.6419424883797391e-01  3.7246726535230257e-01  4.5236543766200665e-01  4.3394979066126088e-01  4.6284844527732871e-01  5.9868042999067650e-01  5.9781029488097492e-01  6.1221607524086930e-01  7.0607342918468208e-01  7.0138278405315746e-01  6.9191454169589606e-01  7.0716181282688229e-01  7.2210889142114543e-01  7.2341964485542209e-01  2.8426558983122030e-01  3.0516058306597355e-01  2.9605088310288835e-01  2.4125211996286830e-01  2.2328170131848085e-01  2.5107580186501005e-01  8.1963421471238571e-02  7.1287665976775036e-02  6.8267283651191515e-02  1.8115855652342491e-01  1.8220077948859531e-01  2.0352394509677876e-01  5.6031094642720303e-01  5.6927130753800581e-01  5.8828673126347120e-01  3.3369824639847723e-01  3.1001879772864438e-01  3.2687758586969690e-01  5.3241825388091912e-01  5.3468517465032439e-01  5.1582915134224938e-01  4.8046502368917587e-01  4.6085649036791404e-01  4.7142587513577527e-01  3.0028602907015722e-01  3.1125861036412639e-01  2.9744304380939579e-01  3.1946983922644712e-01  3.3652974606632141e-01  3.4773233651208885e-01  8.5407711339007586e-01  8.5661636591714896e-01  8.4490272915806885e-01  8.1955253735819156e-01  8.2000818609102266e-01  8.3059572531708348e-01  8.9954556265710339e-01  9.0723228722911353e-01  8.9920493376524724e-01  2.3587247188847422e-02  4.1100304213155144e-02  4.0563502441030394e-02  1.9557214034594489e-01  1.9300784105169982e-01  1.7629019435360893e-01  2.3131043877619020e-02  1.3019754179161637e-02  3.5290943469461836e-02  7.2903621804214835e-02  6.1957643949544609e-02  8.0541677305601869e-02  5.1630124605415728e-01  5.0247481770095437e-01  4.9786809240952490e-01  2.5903413703188266e-01  2.4986956281828887e-01  2.4502074791986980e-01  5.3283925131280174e-01  5.3645524369095454e-01  5.4814696396009310e-01  5.8333342502552599e-01  5.6765728929002068e-01  5.7982199608434459e-01  6.1076320363700687e-01  6.3799166895311965e-01  6.2444302336404367e-01  3.9300110511479558e-01  4.0002914161799258e-01  3.7693828408658447e-01  5.6582044978200441e-01  5.7692694311878268e-01  2.8349323058089787e-01  2.9469807838218509e-01  2.6792487147286920e-01  2.0500909591833807e-01  2.1235937355628082e-01  1.9715238039605271e-01  2.5316060299517967e-01  2.6304010944574496e-01  2.6903705162515462e-01  7.5907443687767029e-01  7.7316094298916371e-01  7.7491490252342743e-01  8.3645035129142509e-01  8.2437224313360935e-01  8.2967787046665065e-01  8.8867895034513411e-01  8.9510647319744407e-01  8.8412373264873256e-01  4.6395857323543516e-01  4.4276900166835459e-01  4.6503993923907061e-01  2.8108769637367303e-01  2.6329428978787728e-01  2.6313070475622580e-01  8.8864955447686356e-01  8.8556503705786904e-01  8.9374028224146063e-01  8.4513910880667331e-01  8.4568361415164883e-01  8.5901889031849954e-01  1.5156371303175609e-01  1.6579293696501618e-01  1.5035913212097321e-01  1.3561741912530254e-01  1.1871225328588439e-01  4.8073739714074964e-01  4.8565021643966760e-01  4.6945975255845901e-01  5.9483665463337332e-01  5.8784835600781937e-01  5.8066944211615978e-01  5.4576856002634311e-01  5.6661617550447918e-01  5.5302760910927207e-01  2.8046492136540946e-01  2.7706293569807261e-01  2.9421402814786340e-01  1.5528259595883356e-01  1.7080461773224540e-01  1.5107959042644975e-01  1.8101933843091519e-01  1.9241467857802175e-01  1.6926970356430060e-01  1.3967061613771350e-01  1.4017716512268485e-01  1.2615780086881329e-01  1.5023404533194920e-01  1.3111074718811164e-01  1.4659431119438843e-01  8.9153172654982751e-02  7.2766482249854630e-02  7.8408170390333459e-02  4.3272278341555348e-01  4.3239285601098093e-01  5.2021267328102849e-01  1.1458038007164019e-01  1.1250184095791779e-01  9.4027123510432520e-02  3.6389592301281262e-02  5.4572060799021299e-02  3.9714759630207520e-02  2.7453975215169979e-01  2.7781344336492825e-01  2.9291297903761088e-01  7.8568321660979920e-02  6.9762709428212943e-02  5.4848586457966635e-02  7.0003652947523964e-01  7.0978339422908243e-01  6.9238995895378852e-01  6.1464112477950517e-01  6.3908829824652214e-01  6.3185049587055808e-01  6.8116773698409627e-01  6.7953942423117608e-01  6.6174254563822266e-01  5.3853662220598919e-01  5.4453545371531542e-01  5.5704537265841336e-01  1.6031353320663724e-01  1.6694460325547655e-01  1.5099959626249512e-01  9.4385423262595664e-02  1.2209423054709161e-01  1.3338749017954496e-01  8.9569152816230235e-02  9.8038832667576764e-02  1.0187493532222219e-01  1.5578402129137878e-01  1.5937787239060267e-01  1.6943029154394190e-01  1.8223816573404633e-01  1.7610560602231276e-01  1.6542122235206030e-01  8.0904964075994423e-01  7.9725523297935519e-01  8.0893387904466374e-01  8.5035551154289979e-01  8.5427643280969812e-01  7.9387209227375322e-01  7.8287475473723633e-01  7.8082293420049365e-01  7.0060703554095016e-01  7.0253746473320933e-01  3.7341281469583493e-01  3.5081543615588129e-01  3.8142127237575985e-01  4.0293014439956837e-01  3.8223555002249415e-01  4.0886418453473433e-01  9.1489851187943649e-01  9.1641714383663286e-01  9.1217954016734515e-01  9.2279197408079983e-01  9.2004650389800968e-01  2.1772647585485694e-01  2.4192123819399580e-01  2.3943702127290192e-01  2.1398248158616828e-01  2.2557867502439063e-01  2.3442494265277039e-01  9.5464344589347355e-02  8.7934372509047801e-02  8.2651046214498064e-02  1.1652639437107319e-01  1.4237029464051271e-01  1.2635209829542249e-01  2.1705857337771206e-01  2.3225570095713186e-01  2.1671858411646230e-01  7.6264780581153901e-01  7.7653859326134522e-01  7.7555280043959707e-01  7.4876765473134743e-01  7.4249463769738699e-01  6.3214615094340620e-01  6.4193759110392445e-01  6.4830555297109693e-01  7.5225152245544413e-01  7.4187462342208210e-01  7.3161062787159881e-01  1.0366561661166894e-01  1.2485605453818492e-01  1.2131198491657731e-01  6.9119318088481374e-02  7.2559302742462653e-02  8.6119332793876374e-02  8.4066682841785711e-01  8.3584447948030061e-01  8.4797036153446859e-01  2.2004718120943814e-01  2.1058770104839530e-01  2.3048069260269713e-01  3.9079536757921379e-01  4.0333589953497478e-01  4.0660054779283239e-01  5.5065607870262867e-01  5.2545864983582746e-01  5.2954125019846221e-01  5.0038063424642820e-01  4.8168323775553040e-01  5.0682338984432584e-01  6.4491920790244783e-01  6.2211700759185584e-01  5.1642627784643336e-01  4.1269076142586236e-01  3.9161021578538335e-01  4.1410176504266555e-01  3.7300758947826074e-01  3.9339469721983517e-01  3.8994297506929321e-01  4.5050077541604233e-01  4.7102943701291339e-01  4.5240773483214752e-01  3.8688665426562485e-01  3.9161620243908396e-01  4.0402767011187757e-01  4.2820359862473256e-01  4.1312825879296866e-01  4.3096611839247179e-01  4.1952707023465291e-01  4.3755176698041520e-01  4.1405808687236251e-01  5.1153693853470950e-01  4.8888812900548523e-01  5.1513843680854732e-01  7.4983424527924680e-01  8.4325292643029504e-01  8.3154695975804105e-01  8.4883958090651301e-01  3.2920396291157300e-01  3.0762554686408106e-01  3.1727185715366218e-01  4.7866627625475805e-01  4.6642781268594424e-01  4.9394287684251792e-01  5.7086055423100102e-01  5.5835203473569739e-01  5.7807053078818549e-01  5.7080268119524413e-01  5.4680421615811503e-01  1.3397721577207752e-01  1.2302237777018993e-01  1.4409268231883701e-01  2.0962596213081502e-01  2.0164325069958977e-01  1.8890671602850406e-01  1.9135416261658638e-02  3.3001457817947534e-02  2.4963763627769209e-01  2.4772851785932248e-01  2.6955966864957759e-01  2.9561065115637553e-01  3.0287230568571205e-01  2.8540445107807705e-01  4.2051871958198939e-01  4.0485438997237022e-01  4.0346272746355116e-01  6.7000594733863361e-01  6.8675102566754109e-01  7.5341779317573054e-01  7.6683796560365236e-01  7.4915820617295126e-01  8.8196248929400201e-01  8.6866520045967222e-01  8.7247908662304752e-01  8.7633448693598082e-01  8.8652921633154902e-01  8.7491006651408576e-01  9.2270079406535144e-01  9.1545301068954532e-01  9.1988018374942959e-01  9.2753279780972886e-01  9.3057820591181017e-01  9.2614822704048894e-01  1.1110476945415332e-01  1.2589211141579149e-01  1.2816273030709560e-01  1.8919487632192961e-01  3.6040266825201017e-01  3.3841376386126537e-01  3.4881349958889379e-01  4.0947243230577751e-01  4.3403905253988956e-01  4.2047037505421975e-01  8.4387384621867290e-02  8.0550877415963576e-02  6.7326514378833899e-02  2.0976328112537429e-01  2.1977980873558770e-01  2.2695223128936531e-01  1.5646042952950073e-01  1.5436679848048840e-01  2.3226032531732391e-01  2.1915098083896870e-01  2.1692458299736755e-01  1.4908838611509334e-01  1.7189456652576207e-01  1.6685446699891462e-01  1.3080867987432918e-01  1.4674526423963277e-01  1.5576237456203784e-01  1.6930400899971501e-01  1.8007281827882635e-01  6.1682231053550340e-01  7.1325096939041288e-01  6.9741109246449617e-01  7.0371308256187093e-01  9.1398250124758296e-01  8.7150576840579019e-01  8.6751389172007887e-01  8.5091077041162866e-01  8.5429117018254175e-01  8.6411000550782291e-01  8.5017769474751692e-01  8.5953485308675526e-01  8.5450549823228394e-01  3.6226240003289062e-01  3.4892808738990644e-01  3.4668531947195286e-01  3.3083203374114933e-01  3.4547305155361802e-01  7.3283193585122486e-01  7.1962095747350374e-01  7.1260257060961574e-01  6.5575956298141869e-01  6.4663882356505298e-01  6.6690699939472975e-01  9.2620162037369391e-01  9.2565994066854840e-01  9.3097860983456171e-01  2.0957128900075409e-01  2.0268867473648516e-01  2.2272707133606842e-01  2.2024625673256334e-01  1.9904624904709223e-01  1.1175674317599070e-01  9.5342293602232259e-02  1.0977454107570267e-01  5.8775134930790529e-01  5.8059387119232808e-01  5.6643331332237057e-01  6.1820718130542351e-01  6.0583827122334610e-01  4.6965773828438757e-02  4.2770934635970287e-02  5.8369979024072489e-02  7.0233559702311418e-02  5.5034118480826545e-02  6.1796222532954630e-02  1.1781691439945861e-01  1.2458705187180683e-01  1.0365690628583565e-01  3.4000764297895947e-01  2.9989382351007632e-01  3.2404145177481258e-01  3.1118526940965019e-01  8.1556590784114635e-01  7.9743892509814729e-01  8.0849606280391828e-01  7.1933428648264675e-01  2.1287460305502398e-01  2.1551041019107023e-01  2.6203743760089371e-01  2.6972991672235369e-01  5.9044398570982176e-02  4.4660840354827140e-02  4.3485498372163617e-02  7.4572504152439945e-01  7.5874844184406987e-01  7.4245933936709829e-01  7.6151027974209606e-01  7.7623179079736404e-01  7.5651236935553157e-01  4.2098698747376978e-01  4.3403243841451211e-01  4.0773614231336069e-01  3.9233031217410286e-01  3.7001750644763148e-01  3.7710473843899456e-01  1.5633358263175184e-01  1.4050214610605347e-01  1.4848475412711157e-01  1.5918047276237043e-01  1.8095667666527152e-01  1.7360855398827704e-01  8.7652677999017811e-02  9.6351097472205244e-02  1.0594185388041441e-01  1.2077671246768719e-01  1.2007209790915326e-01  1.3624669778860748e-01  1.5505608393247375e-01  1.4370948786474888e-01  2.8201359067471998e-01  2.8086510117735536e-01  4.1484882233449655e-01  4.2619375549053834e-01  4.4843637347273513e-01  4.3274927797431867e-01  4.0093806231751905e-01  3.7399941161812328e-01  3.8954802072909128e-01  5.2934078410387619e-01  5.4703381540079954e-01  5.2610188111543021e-01  6.4007348880099679e-01  6.3522494923270245e-01  6.5348396139275700e-01  1.4744399008691353e-01  1.4129316644608117e-01  7.0386867742738182e-02  6.3641014390165132e-02  5.8099017702440435e-02  7.0097539350382182e-02  6.4900839124580709e-02  8.4771168124710763e-02  8.2751899742207743e-02  9.2132619972201868e-01  9.2132389047607632e-01  8.1009721311301064e-01  8.2071574815073611e-01  8.2185552538735629e-01  7.6576792253707049e-01  7.5109432854969138e-01  7.7432999215552978e-01  7.0264325182832477e-01  7.1464967769332766e-01  6.9751690324896276e-01  7.1285282966441932e-01  7.1071683282106102e-01  6.9925305594039711e-01  2.6215885152016166e-01  2.4550404290357250e-01  2.4401292752813819e-01  2.3601497817194689e-01  2.1312280386989499e-01  5.2298936015866893e-01  5.4141895655879824e-01  5.3784936123989191e-01  5.2278878094077064e-01  5.1849321469285370e-01  6.9876696235095304e-01  6.8300477175380014e-01  6.9939313891125587e-01  7.3644262555546114e-01  7.4865604761233118e-01  7.5003370374351563e-01  2.3484830059295531e-01  2.3876904107363123e-01  2.4554656409845538e-01  2.4990733571584850e-01  2.2107427246798186e-01  8.1021169972248105e-02  7.6763213687917248e-02  1.7122177279846393e-01  1.8573063223178118e-01  1.5852048108489858e-01  2.7082309408942407e-01  2.8954503416446870e-01  2.7270484384746857e-01  2.2059999491771509e-01  2.1000094357343854e-01  2.0560539395493721e-01  5.6291776196856325e-01  5.8779289458883299e-01  5.8825391058948862e-01  5.7373124325637903e-01  5.8064028492592856e-01  8.6530849608817717e-01  8.6569584125551768e-01  8.5505855733564218e-01  8.5325057513450486e-01  8.4011166369292967e-01  7.4460960064796564e-02  6.2306143219006939e-02  7.5661635570444571e-02  8.0496602995392130e-02  6.4674115861901013e-02  2.2262859267140106e-01  2.3431267022620170e-01  2.1878991634268657e-01  3.1042051924474579e-01  3.1286639442917424e-01  3.3200048177406549e-01  5.2405635994143984e-01  5.1061024306454639e-01  3.6937003734018892e-01  3.5588440601544136e-01  3.6966817553374015e-01  2.5524605088978886e-01  2.7035177249043835e-01  2.8149534166087342e-01  3.0359931264950835e-01  3.2041345870001742e-01  3.1901946588982105e-01  2.9158628691616024e-02  1.9084022312850630e-02  3.2078324693046119e-02  8.6277290305430410e-01  9.0262807627199493e-01  9.0865407051486990e-01  9.0268476017327226e-01  5.0775960707885280e-02  6.8207639005474455e-02  6.7989418773729826e-02  7.1661349247347783e-01  7.3267038480608637e-01  5.1646342031313275e-01  5.3659113291663996e-01  5.2114312216926939e-01  6.0211788367381636e-01  6.0199511100106329e-01  5.8942276737912702e-01  3.8389778254319168e-01  3.8126894237933534e-01  4.0908834771984498e-01  3.6491969393357720e-01  3.4752283301228487e-01  3.3968024629402477e-01  3.6217136912580655e-01  3.4351259983137206e-01  3.4742798795528723e-01  4.3683166044812921e-01  4.1919902829864203e-01  4.3179317342721685e-01  4.3607146701603949e-01  4.4145560573605086e-01  5.5964260093680773e-01  5.436745262