<?xml version="1.0"?>
<VTKFile type="UnstructuredGrid"  version="0.1"  >
<UnstructuredGrid>
<Piece  NumberOfPoints="2513" NumberOfCells="4852">
<Points>
<DataArray  type="Float64"  NumberOfComponents="3"  format="ascii">-1 1 0  -1 -1 0  1 -1 0  1 1 0  0 -1 0  1 0 0  0 1 0  -1 0 0  0 0 0  -1 -0.5 0  -0.5 -1 0  -0.5 1 0  -1 0.5 0  1 -0.5 0  0.5 -1 0  1 0.5 0  0.5 1 0  0.4166666666666666 -0.4166666666666667 0  -0.4166666666666667 0.4166666666666667 0  -0.25 -0.5 0  0.5 0.25 0  -0.4861111111111112 -0.06944444444444445 0  0.0732758620689655 0.507183908045977 0  -0.625 -0.625 0  0.625 0.625 0  0.7380952380952381 -0.25 0  -0.7099116161616161 0.2105429292929293 0  -0.25 0.7380952380952381 0  0.105392156862745 -0.6348039215686275 0  0.6770833333333334 -0.6770833333333333 0  -0.6770833333333334 0.6770833333333334 0  0.3472222222222222 -0.06944444444444446 0  -0.7264957264957265 -0.3044871794871795 0  0.3141940982507127 0.7297313660835709 0  0.02049587951122483 -0.3227479397556124 0  -0.2690972222222223 0.1475694444444444 0  0.3859500089908372 -0.7274430156831472 0  -0.2228477945123298 -0.1761765495248019 0  0.2182539682539683 0.1884920634920635 0  0.75 0.375 0  -0.145442219440968 -0.7602211097204841 0  0.7088913690476191 0.0427827380952381 0  -0.75 -1 0  -1 -0.75 0  1 0.75 0  0.75 1 0  -0.7439982703698937 -0.04614153195464455 0  -0.4609235096577606 -0.3356498099556895 0  0.4063134471431929 0.4895621842856023 0  0.25 -1 0  -0.25 -1 0  -0.75 1 0  0.75 -1 0  -1 -0.25 0  -1 0.25 0  1 -0.25 0  -0.25 1 0  1 -0.75 0  -1 0.75 0  0.25 1 0  1 0.25 0  -0.4041423272138783 -0.7597141090712928 0  0.06500839607911253 0.7578103030529481 0  -0.1572801182352047 0.3838997021864289 0  -0.6528005242053915 0.4409494757946086 0  -0.4930160984848485 0.1544744318181818 0  -0.4732142857142858 0.7752976190476191 0  0.6398809523809523 -0.4538690476190476 0  0.5166054117396399 -0.2161233620965164 0  -0.002273787244753427 0.2232363985975174 0  0.1500564496765022 -0.1524955293952667 0  0.2016720420046758 -0.4410343282803009 0  -0.08495178036419618 0.6274139771124571 0  -0.8367311471133162 0.3642591720794645 0  -0.8333333333333334 -0.625 0  -0.594323836800685 -0.8231079456002283 0  -0.4466957714776065 -0.5349126855671806 0  0.8125 0.5625 0  0.78125 0.78125 0  0.5091392650016769 0.7947130883338923 0  0.125 -0.8382681931833136 0  -0.8184523809523809 -0.8184523809523809 0  -0.07781530426104531 -0.5819319697006881 0  0.5085055196703295 0.04967610411902112 0  0.2918471072074933 -0.276017202318847 0  0.5120763537765269 -0.5898771553229597 0  0.625 -0.8585349462365591 0  0.8158532234335381 -0.8158532234335381 0  -0.5198088446315396 0.5739411553684605 0  -0.8585349462365591 0.625 0  -0.8150493805516597 0.8156205699829586 0  0.8585349462365591 -0.625 0  -0.2688268348649726 0.5439331383603209 0  0.8242100426758139 -0.4436043596336612 0  0.5833756314287952 0.4479378157143976 0  0.8690476190476191 -0.125 0  -0.125 0.8690476190476191 0  -0.8692745600729823 0.125 0  0.8696725120759167 0.125 0  -0.625 0.8711516477451908 0  0.2339522463269718 0.3879558377955778 0  0.2453709502295031 0.5655822922838026 0  0.1730610651637797 0.02021709580868947 0  0.3245402594056757 -0.5644672020485209 0  -0.7291666666666666 -0.4816595441595442 0  -1 -0.375 0  -0.5811140848639904 -0.2127276307675001 0  0.673332592838314 0.2158348143233718 0  0.375 1 0  -0.5714768890989919 0.2985103444040069 0  -1 -0.125 0  -0.8453692574786325 -0.1875 0  -0.3144549134065865 -0.02408675326008025 0  -0.2898414972096258 -0.3336092734780093 0  -0.1075052092206287 -0.4224330421314983 0  -0.05043970703604117 -0.1652278959397459 0  0.6459672950297897 -0.1113415301525317 0  0.4645210271029513 0.6398480556579343 0  0.3512863754411909 0.0937979496253573 0  -0.6063160985568274 0.03891469652249891 0  -0.3428819444444445 0.8690476190476191 0  0.625 1 0  -0.1602164796159982 0.02697860906625157 0  0.04648110064133829 -0.4808416424239687 0  1 0.875 0  -0.3836102479201657 0.6484936449177356 0  -0.3776011723096096 0.263078478984336 0  -0.6024978259969829 -0.3949628096211138 0  0.125 1 0  0.2010781308272777 0.8456221018461906 0  0.2822509696388829 -0.845902544691141 0  -0.3285533674953515 -0.6289773550938936 0  0.3461306793221754 0.278777492464833 0  0.4737475672408696 -0.8508448959534423 0  0.2384632828836344 -0.7029523187242811 0  -0.004777287059791593 0.3759269695907358 0  -0.8499735021850066 -0.3912320205328522 0  0.1222536293721587 0.2963971539625205 0  -0.3769456520999688 -0.203572526805711 0  -0.2749617205755651 -0.8464290792698902 0  0.004805888512766143 -0.747174355248311 0  -0.125 -1 0  -0.06001061822252458 -0.8724007765244854 0  0.875 0.4375 0  0.854421179608893 0.271342359217786 0  0.875 1 0  -0.1499861095763589 0.2358309656934888 0  0.3381943639137225 0.8663061796405532 0  -0.7853090110442228 0.4998412775277108 0  0.7398165998560814 -0.5535192694951373 0  0.1580042122341573 -0.3100246140259917 0  -0.7291666666666667 -0.7142857142857142 0  -0.375 -1 0  0.6483368386154684 0.8514905990110488 0  -0.1295370103291928 -0.2826118305021242 0  0.07458201853700455 0.1123894386563915 0  0.6146465857036327 -0.3161203659316075 0  0.5551898493894731 -0.740296118159085 0  0.375 -1 0  0.482702798370208 -0.084133350091034 0  0.87890625 0.68359375 0  -0.05917195534525846 0.4971092425697621 0  0.1260710309213975 0.6343750312956699 0  0.8690476190476191 -0.3077066815262848 0  -0.2912010232560567 0.3668168386732139 0  -0.875 1 0  -1 0.875 0  1 -0.875 0  0.875 -1 0  -0.8689564281364567 -0.006189266075306407 0  -0.7449425635110547 0.08458938160051771 0  -0.7150266761936593 -0.1739444581417552 0  -0.5260034831318311 -0.711099823962112 0  -0.4724626808827322 -0.871722230709409 0  0.4734436795977052 0.377714794132168 0  -0.875 -1 0  -1 -0.875 0  0.6927189078571988 0.5156567235715964 0  -0.3742497615796874 -0.4296005251260107 0  -0.1969436423297711 -0.6387157229772615 0  -0.6179496409766825 -0.08933356056510935 0  -0.424405057115988 0.04452428810878029 0  -0.08479048335844169 0.1279607007132633 0  0.003830300099055113 0.8712085230656206 0  0.8748778838820267 -1.379218479898026e-05 0  -0.375 1 0  -0.625 1 0  1 0.125 0  -0.125 1 0  1 -0.375 0  1 -0.125 0  1 -0.625 0  0.625 -1 0  0.125 -1 0  -0.625 -1 0  -1 -0.625 0  -1 0.125 0  -1 0.375 0  -1 0.625 0  1 0.375 0  1 0.625 0  0.6325660748712082 0.3335187599557389 0  -0.06420945895056573 0.7549874027425891 0  -0.8769015540914771 0.2478802253893416 0  0.871875 0.871875 0  -0.6868091492840067 0.3270978624973681 0  -0.5363597469565949 0.412994850055505 0  -0.6803734992638302 0.5574295000651103 0  -0.7076253581162534 -0.8803439094224437 0  -0.8778089002295137 -0.5106896447504627 0  -0.3860184984222981 0.530566778071246 0  0.6109900617121508 0.1128453077697081 0  0.3896945134930274 -0.1915382873255086 0  0.7605656944697778 -0.06822134873122943 0  0.3576151269893478 0.5948388411612135 0  -0.5689902680792265 -0.5143596830118065 0  0.6262446286847614 -0.5735657901943212 0  0.2030558252325225 -0.5625263842513452 0  0.6123273142928579 0.7407533260723429 0  0.4016460890123554 -0.3042863223111857 0  -0.59039693199147 0.7578418819188018 0  0.7276932493917544 -0.3705808024528924 0  0.5222536818742854 -0.4713886230400014 0  -0.5101986527137737 0.8848365765607674 0  0.510560172809238 0.5356013299918891 0  -0.3603569195756083 0.75823710606415 0  0.1967279277813232 0.728226870058472 0  -0.6086880986371127 0.1545624071548516 0  -0.38105366729386 0.1511189987807864 0  -0.2944659463671584 -0.7359061804869591 0  0.5060729154966499 -0.3475227845833823 0  -0.09281616240412746 -0.06197858250969457 0  0.7649739583333334 0.6673177083333334 0  0.7628906249999999 0.890234375 0  -0.2666864184909611 0.2585504071132311 0  0.3635064892129658 0.3878003602709461 0  -0.2339409722222222 0.8901937905844155 0  -0.1718792125974916 -0.8957733325456778 0  0.1001768566329531 0.4023510017391879 0  0.3120260172693757 -0.4540546875576884 0  0.7804062804433681 0.1896628610854537 0  0.4087715451998049 0.187961780041608 0  -0.1584963477271457 0.5451611892421655 0  -0.8926817849258324 0.463022006336401 0  0.2338091473445219 -0.07576267331277289 0  0.08171112182813692 -0.2349087687359925 0  0.04635385178956847 -0.1044635073718474 0  -0.4377391632114205 -0.6448874471423088 0  -0.1907678351227189 0.6480215912813945 0  0.300605946475244 0.4741444604171038 0  -0.2145033720757486 -0.06751709909419711 0  0.6069191921170397 -0.005492331448357812 0  0.0214718770761248 0.6032397936031719 0  0.5476675683364878 0.8992752415326501 0  0.4387475014316537 0.9093708953002239 0  -0.4932997685306436 -0.4381009159993523 0  0.2515197695339056 -0.1791673369138964 0  -0.7291666666666667 -0.6088789682539681 0  -0.9166666666666667 -0.6875 0  0.620579540363709 -0.2122431523583302 0  -0.484950136419973 0.6719440339397442 0  0.2857044415400258 0.0137589173127316 0  -0.8945708364098356 -0.288306105327986 0  0.4043102720140535 0.7842914560451557 0  0.04123256238752064 -0.9026968245801402 0  0.2003676884403109 -0.9091888601740487 0  0.1068775558538842 -0.7373377130403223 0  -0.4804566783514427 -0.1763307203045643 0  0.108286342087769 -0.3993789328997278 0  -0.191883080105361 -0.3640821726430649 0  -0.07025064492006244 0.2984876656890053 0  -0.7039324641409584 0.788312126296613 0  -0.7311286585775438 0.8932502354831682 0  0.5171409396884947 0.1503852691889257 0  0.4229392823658633 -0.003216522184234835 0  -0.5621736087218259 -0.919558629836806 0  -0.626474064879544 -0.7266572613636506 0  0.2446828746617422 0.2867616783302419 0  0.1759429608742923 0.4776611759306416 0  -0.3468240303741654 -0.5260416435617549 0  -0.7465808808425306 0.4069574477998361 0  -0.7819962170660292 0.2802441065650652 0  -0.3742623214119594 -0.8547800509641984 0  0.1014498009713561 0.8506721983266377 0  0.4285217620918213 -0.5230190595570253 0  0.4091738370487775 -0.6256346204225141 0  0.78125 0.46875 0  0.90625 0.53125 0  -0.4791801348852565 0.2553992655702126 0  0.7843318610782772 -0.7086046956885941 0  0.8909728264971901 -0.7355183796514634 0  0.7041908166528879 -0.7830649143180282 0  0.7311821352
[...]
<PointData  Scalars="velocity-2"> 
<DataArray  type="Float64"  Name="velocity-2"  format="ascii">0.0000000000000000e+00  0.0000000000000000e+00  0.0000000000000000e+00  0.0000000000000000e+00  0.0000000000000000e+00  1.0344996467040739e+00  0.0000000000000000e+00  1.0347600396902370e+00  1.0343764591886218e+00  8.7093977939912359e-01  0.0000000000000000e+00  0.0000000000000000e+00  8.6996492314624185e-01  8.7086861639962010e-01  0.0000000000000000e+00  8.7042383839876736e-01  0.0000000000000000e+00  9.3699232218601547e-01  9.3754809465058608e-01  8.6948887275244102e-01  1.0025107880829180e+00  1.0262884353392849e+00  8.6263247325919956e-01  7.2846894948500374e-01  7.2548471162983985e-01  1.0024037534339367e+00  1.0081959033731491e+00  5.5393259470422762e-01  7.1232511365360240e-01  6.5255455909752891e-01  6.5490567429918034e-01  1.0293660971677747e+00  9.9108041049641216e-01  5.6999790492559066e-01  9.8475046289166546e-01  1.0151721463996897e+00  5.7205919293737284e-01  1.0096417675467375e+00  1.0089445009705145e+00  9.6212617436234371e-01  5.1631026801784796e-01  1.0327472892309981e+00  0.0000000000000000e+00  5.3397688116338382e-01  5.3425101144457932e-01  0.0000000000000000e+00  1.0320796740929981e+00  9.8044248260505573e-01  8.7851414233181757e-01  0.0000000000000000e+00  0.0000000000000000e+00  0.0000000000000000e+00  0.0000000000000000e+00  1.0033000475458460e+00  1.0035606781785307e+00  1.0040188170803594e+00  0.0000000000000000e+00  5.3392480974592205e-01  5.3463017577572625e-01  0.0000000000000000e+00  1.0038533482568182e+00  5.1804651253737810e-01  5.1975423505406648e-01  9.5731969620511781e-01  9.2029092985143734e-01  1.0157297626314823e+00  4.8761304654460097e-01  9.1038711561983132e-01  1.0086779829575507e+00  1.0080430732954082e+00  1.0141826688936473e+00  9.2029649838349015e-01  7.2176822771932048e-01  9.6993092371687795e-01  7.2700659296338210e-01  3.9687916872864654e-01  8.3611084337822938e-01  8.0507590980279775e-01  4.7640228734208057e-01  4.5247092029997182e-01  3.6796181242463849e-01  4.0860309325083904e-01  7.8381867825012042e-01  1.0331194965220294e+00  1.0001877178700798e+00  7.7158918446500036e-01  3.2554092538304941e-01  4.1199448093244817e-01  7.9194143863980426e-01  7.2699887760424864e-01  4.1230234779607394e-01  7.2706959270884497e-01  8.2586019337140049e-01  9.1821314036031942e-01  9.1292755469841436e-01  1.0183387430067699e+00  3.0371179107419494e-01  1.0183589824702577e+00  1.0189604655727469e+00  2.9793089475044948e-01  9.5378913079483252e-01  8.0296783895641988e-01  1.0309679949478547e+00  8.0283547067739724e-01  8.8664503721560095e-01  9.6230957236834380e-01  1.0106158392534998e+00  1.0081915542332403e+00  0.0000000000000000e+00  9.9212675207855372e-01  1.0193039823744252e+00  1.0112270375064090e+00  1.0340382570125766e+00  9.8010195915582332e-01  9.3339552742806053e-01  1.0148395458835799e+00  1.0224087790629981e+00  7.0664189209848782e-01  1.0226305661394106e+00  1.0314513013883242e+00  3.0075651167709705e-01  0.0000000000000000e+00  1.0323023191106788e+00  8.8882818522369389e-01  2.9157972294130485e-01  6.9372909522291804e-01  1.0021903308413080e+00  9.5094010373836424e-01  0.0000000000000000e+00  3.5149427771533737e-01  3.5164339415873325e-01  7.2272965206695672e-01  9.9547260072578503e-01  3.4256702486884499e-01  6.1109186952479044e-01  9.6204106195434835e-01  9.5200722676755123e-01  9.9333697338571703e-01  1.0090763795256938e+00  3.5246232604496908e-01  5.3740336516929132e-01  0.0000000000000000e+00  2.9608479105512575e-01  9.2277676769330563e-01  1.0007755540943080e+00  0.0000000000000000e+00  1.0043475390480416e+00  3.0961286136789928e-01  8.7072704694681791e-01  8.1633847944513882e-01  9.8865947649374530e-01  5.9432886892809123e-01  0.0000000000000000e+00  3.3964809872285889e-01  9.9719028165213863e-01  1.0217844211729845e+00  9.8736651409064768e-01  5.4933576940460094e-01  0.0000000000000000e+00  1.0268553188008671e+00  6.4147085558153139e-01  8.7132658080670411e-01  7.1301556192638094e-01  9.9010863158836360e-01  9.6656190568123290e-01  0.0000000000000000e+00  2.9172749246276580e-01  2.9105503310907904e-01  0.0000000000000000e+00  1.0341074144852644e+00  1.0257772588502525e+00  1.0135864025925720e+00  5.9911032317056567e-01  2.9729985045609841e-01  9.5967466565128678e-01  0.0000000000000000e+00  2.9114476344162499e-01  8.5457326464981886e-01  9.2754139254510215e-01  7.0716724120441965e-01  1.0267714223658968e+00  1.0325625256428319e+00  1.0200727123338105e+00  2.9883625147538956e-01  1.0331098030403281e+00  0.0000000000000000e+00  0.0000000000000000e+00  1.0190632221607487e+00  0.0000000000000000e+00  9.6289973509629168e-01  1.0186230313455182e+00  7.2707107433508844e-01  0.0000000000000000e+00  0.0000000000000000e+00  0.0000000000000000e+00  7.2621580885607662e-01  1.0184566209040427e+00  9.6251082823819967e-01  7.2785143130404506e-01  9.6319737020426732e-01  7.2706555976667175e-01  9.8150193929030249e-01  5.2236454350492501e-01  1.0021066834614398e+00  2.9681256779260590e-01  9.8508492990112306e-01  9.4104628581065608e-01  8.1073292704611366e-01  2.8021734398829612e-01  8.6107516772897064e-01  8.4031751006350963e-01  1.0205854124684932e+00  1.0109308644183486e+00  1.0266873750120622e+00  7.6377514155081183e-01  8.5632840689600354e-01  7.9168857489770061e-01  8.0273251719976912e-01  5.4901797411076025e-01  9.9064121597643273e-01  5.1797752771811045e-01  9.6485765690105996e-01  8.9473195693253715e-01  2.6853232303410679e-01  8.3320126640388459e-01  5.2042190016351508e-01  5.7165909135573345e-01  1.0156354095494324e+00  1.0176327908416962e+00  5.5691583218333729e-01  9.7553727026393156e-01  1.0287787714455474e+00  6.6487296333565638e-01  2.5599058939693842e-01  1.0033902619232440e+00  9.5330081691892443e-01  2.5756323879832704e-01  2.4546869135057967e-01  9.4826251585996613e-01  9.1075831791614115e-01  1.0094711967841001e+00  1.0122948724418868e+00  8.2531322618138414e-01  9.0235608334495476e-01  1.0280570066277790e+00  1.0055429296374654e+00  1.0230720734808032e+00  7.0127180081685003e-01  6.9551665392566409e-01  8.9278157873812647e-01  1.0283884182627623e+00  1.0325897770472205e+00  7.5588386176881706e-01  2.3645214816665094e-01  2.1701157447442779e-01  9.2253038894817607e-01  1.0121125511949074e+00  7.4873623183551485e-01  6.3649784456727598e-01  1.0073308049788909e+00  6.6027618287706591e-01  1.0353100989538082e+00  9.9606327002084272e-01  4.7040532753425512e-01  2.2873919037920248e-01  2.1534181897634347e-01  5.5481873087785261e-01  1.0166926311630295e+00  9.4735955502972713e-01  9.6695863680974192e-01  9.9265476321202761e-01  4.6458946432977583e-01  2.5149970810558525e-01  1.0153755016772519e+00  1.0359898477822500e+00  1.9247474524362768e-01  5.7312620958149907e-01  9.9485452000042329e-01  8.8945389070867020e-01  8.4607123901588677e-01  9.4460286540215488e-01  9.9825398570504442e-01  3.3306415184134797e-01  3.4213912902788590e-01  8.4622577332238458e-01  7.2723732977161493e-01  9.0016446251470894e-01  8.3894514431730527e-01  1.0037346103817726e+00  6.0379109557159860e-01  5.5772851363971376e-01  4.7410296347508307e-01  2.5546937496173666e-01  4.1807768177352367e-01  5.9645875344985333e-01  6.0193017657720527e-01  9.1313841713132249e-01  2.0320779433592098e-01  2.7099087598109434e-01  4.7331903686369964e-01  5.8143864005031742e-01  2.0673800559547903e-01  2.5318864494076210e-01  6.9310551120333475e-01  6.9098770804709764e-01  3.9199115145610341e-01  6.4040315296579819e-01  7.8617237651801464e-01  8.2059531854918022e-01  7.7058800513316361e-01  1.0116316017596780e+00  1.0101905451775863e+00  1.0226171254388881e+00  9.1021326008237902e-01  8.1507446472497147e-01  1.7027419353364709e-01  8.4628646476914826e-01  9.4966063669383793e-01  4.8354655188166096e-01  7.3802039051193180e-01  8.7757706783120371e-01  8.5402916054471933e-01  9.7133361768256332e-01  9.9680820987118945e-01  1.0280725475238326e+00  6.8121746988858300e-01  1.0251851601419564e+00  4.8408438161102235e-01  6.2633389856320176e-01  1.0202783993148594e+00  9.9380120397316940e-01  9.0296611997839138e-01  1.6513305266071229e-01  1.0123161224852986e+00  1.0236741300561414e+00  1.0075614104699282e+00  9.2326495343043558e-01  1.0348809081567192e+00  9.3631676760580473e-01  8.3429543112126336e-01  6.8051438790110352e-01  1.5836975156199251e-01  1.0144066949670476e+00  1.0288024649990453e+00  1.0290674741708052e+00  1.0112398057512197e+00  1.0165791489654024e+00  1.6247587948478590e-01  6.0716289646820831e-01  1.5999734089020137e-01  9.8948373698259073e-01  1.5881770210899537e-01  6.9931935930185829e-01  1.0291955795045966e+00  1.5502195437569002e-01  9.5244805680860878e-01  8.2333353298048861e-01  8.2380598322174425e-01  4.1560874929406072e-01  9.8874671347076415e-01  1.0284178789145557e+00  1.0293762535175797e+00  1.0271877418439335e+00  1.5015979538613625e-01  1.9296382423353114e-01  1.5925882780733056e-01  1.0175550010217618e+00  1.0088208474405915e+00  8.2474915405502291e-01  4.8680124768448141e-01  1.5322042188160301e-01  6.4960846054989163e-01  9.6334485696431627e-01  6.2863635640032511e-01  1.0327232192835660e+00  1.0118526118652231e+00  4.5664681511315175e-01  5.6023204925206227e-01  1.0334601899077067e+00  1.0166226058352708e+00  9.7689236822483894e-01  1.0048079879818173e+00  1.5641478996915198e-01  1.0026317806870233e+00  9.3471598637018216e-01  9.7733499516989497e-01  1.0021132552652885e+00  9.5087868142600185e-01  1.0234832070296773e+00  1.0055488570840150e+00  6.7207389843203413e-01  4.4923206215581274e-01  9.9960118254168595e-01  1.0078952886798231e+00  7.7150054159055037e-01  9.7170725254664891e-01  7.6953900032311562e-01  1.0076679519300411e+00  1.0169933145073169e+00  1.0120382961400796e+00  9.8507994258434717e-01  1.0309149894412093e+00  6.1484774937454933e-01  2.3447032397686043e-01  9.8392643371694655e-01  3.4197945197514618e-01  9.8358579592420137e-01  8.7688096289573403e-01  9.4215265105981361e-01  9.7642851401386044e-01  8.1484840817211734e-01  1.0085555591963362e+00  1.0023887796168949e+00  9.6464723357516458e-01  8.9749797423230848e-01  1.0202499239863647e+00  0.0000000000000000e+00  1.0333902679580771e+00  1.0257437805743852e+00  9.1587047404039734e-01  9.0700877132062863e-01  4.7079016195075102e-01  1.0358828463151601e+00  1.0237466828204795e+00  7.1337113017879694e-01  9.0175358744359502e-01  9.8300278243117356e-01  7.4249229164785580e-01  8.0271809675750494e-01  0.0000000000000000e+00  1.0029536781944428e+00  1.5266648403478791e-01  4.3327965234357302e-01  1.0188539830015646e+00  3.8766495543278501e-01  1.9163929909996874e-01  7.1478003382716493e-01  9.4500666803877409e-01  9.7605811843402290e-01  1.7488137083516830e-01  8.1563164123597776e-01  3.8989391336516727e-01  4.9539526549834573e-01  9.5645664080164061e-01  1.0078267950539508e+00  4.9536075102965377e-01  1.0111429673573411e+00  1.5143363065680859e-01  9.9944040166559378e-01  9.7548850816330801e-01  4.7845454508687185e-01  7.5528572563300367e-01  6.7194359932340042e-01  1.0183518505937013e+00  4.6341330742603587e-01  4.8075662304823136e-01  7.5304921919874823e-01  0.0000000000000000e+00  9.8548886208057240e-01  0.0000000000000000e+00  7.7583716131533909e-01  9.4609957436522329e-01  9.6990226504392441e-01  8.5458315664028961e-01  1.0344579314364168e+00  1.0239021863129345e+00  1.0085558048436964e+00  9.2077113745315453e-01  9.9234564652643120e-01  0.0000000000000000e+00  1.7699906286646580e-01  7.2534459344973312e-01  1.5107691126939229e-01  5.8888572269776696e-01  9.0000086767378940e-01  3.3388869664097881e-01  8.0161874840553804e-01  6.3513103139711147e-01  5.1512603270436796e-01  2.6050592891435254e-01  0.0000000000000000e+00  3.8438981685227575e-01  3.9043957583806949e-01  4.1335734184531625e-01  1.0325839256584666e+00  0.0000000000000000e+00  7.7773445094667015e-01  6.3944363931076653e-01  1.0324551341065411e+00  9.8833883715394610e-01  1.0101356095533665e+00  1.0074008870376274e+00  9.8924195647996560e-01  1.0111583654925578e+00  1.0317735397258929e+00  5.5233336915321563e-01  8.4451407924294619e-01  6.7513248827871142e-01  8.6218067664819864e-01  1.0206465509711302e+00  1.0243702849615155e+00  0.0000000000000000e+00  7.7265453510685678e-01  1.7286223167013520e-01  2.1080705774865097e-01  8.9523889556529235e-01  9.2704050805365046e-01  1.0041670153310926e+00  1.9748419991276273e-01  5.9961803669196179e-01  1.0109337929851701e+00  9.7070629967174937e-01  1.0030448520883219e+00  8.9604632836951381e-01  1.0148985914700772e+00  1.0274562574615358e+00  9.2274745997169239e-01  1.5464040916524649e-01  1.6617946494372449e-01  1.6985449908374847e-01  1.0099596587995314e+00  4.4615141157698157e-01  9.6197754874046626e-01  1.0228224339453553e+00  1.0141672099721715e+00  1.0084708597976615e+00  7.2833216081651109e-01  8.6000767305675041e-01  3.7491209497002598e-01  1.6124082384739644e-01  1.0157309898426954e+00  9.2300889668498631e-01  9.6053639126689594e-01  1.0014352279323648e+00  9.9937565010068974e-01  9.9696387594785107e-01  8.9630862876748618e-01  8.7125761974726057e-01  9.5718521342966534e-01  1.5239910640847840e-01  0.0000000000000000e+00  8.7749999083084240e-01  1.0207856763982037e+00  1.0242656137613528e+00  1.0097665097412185e+00  4.4581610951890099e-01  1.7119739324616312e-01  1.0356938189108686e+00  5.6270198199309474e-01  5.8813540839851675e-01  9.6082891961952854e-01  9.8026571466256973e-01  5.3308175432636140e-01  4.3658045392616102e-01  6.3880236274844437e-01  6.6548434576154358e-01  1.0265595511456986e+00  5.0423601408952246e-01  6.5729181295965999e-01  6.6311409227171281e-01  9.9249251709318209e-01  7.6191877265493513e-01  7.7778318082103992e-01  9.9943536319837911e-01  9.8908237444188030e-01  6.0264416233941531e-01  9.0247193426939298e-01  3.0928657730016390e-01  8.6709325812374216e-01  1.0125188446397311e+00  1.6187005083879688e-01  3.6234060037306043e-01  1.0304040121677074e+00  3.8099477401876447e-01  4.6217284066452707e-01  3.6630119995563809e-01  7.0094603587371473e-01  9.7806073731043863e-01  1.0332003338467453e+00  4.4749308485964723e-01  9.9662591844150761e-01  1.0073437377781125e+00  8.4245851399810046e-01  8.3771248990312897e-01  5.1228829723045277e-01  8.0827954573265981e-01  8.0585900484605355e-01  1.0042388232208990e+00  1.0085480604628159e+00  9.4133694732666795e-01  1.0346990442478110e+00  7.1373243558779853e-01  1.0181197850311716e+00  9.9744514170058651e-01  3.8465301544865665e-01  9.7800456877494568e-01  6.2303985690565511e-01  1.0256846657387548e+00  6.7293725918120162e-01  1.6068838485911799e-01  3.2580189090664130e-01  4.2387829569033325e-01  5.4221141373528459e-01  1.0175621110807485e+00  1.0118357016519359e+00  1.0169470621484249e+00  7.9380278419917283e-01  9.9890613870490941e-01  9.8791349577275567e-01  9.3251108075800504e-01  9.4924025851442739e-01  1.0271779410653978e+00  0.0000000000000000e+00  8.3987981052575622e-01  7.5428242467524853e-01  5.9593947870573216e-01  5.0200674725264904e-01  6.9956487671017031e-01  6.1972686227091189e-01  1.0367931369847045e+00  4.6731943289656852e-01  9.7374600699072633e-01  7.3181263101153005e-01  7.8818270815864500e-01  8.9129686797054242e-01  0.0000000000000000e+00  4.1821442544806547e-01  3.9631182991923708e-01  6.3651298982939908e-01  5.9362493143229222e-01  6.2918246584246995e-01  9.5056948621537163e-01  8.9808701339704988e-01  9.9005595926212375e-01  1.0020231900100798e+00  6.2227575223686471e-01  0.0000000000000000e+00  1.5391218286220862e-01  3.5621386582352677e-01  1.0210351818986556e+00  4.4982194403717529e-01  8.2351181418157460e-01  1.0148990168158472e+00  1.0266625116655834e+00  6.0907111822580817e-01  8.6571002374467065e-01  6.6973259440903943e-01  2.4166564173113139e-01  1.0062332507825362e+00  9.8265156424636102e-01  1.0300083670912659e+00  1.0336115592044985e+00  2.1160388454319645e-01  6.3721948369234305e-01  1.6157692452788056e-01  1.0353041327906045e+00  2.0622303238134393e-01  1.0046897918879367e+00  8.0507602546111934e-01  6.3674826007070040e-01  0.0000000000000000e+00  0.0000000000000000e+00  0.0000000000000000e+00  1.5136056541776369e-01  0.0000000000000000e+00  0.0000000000000000e+00  9.8926545879510341e-01  4.1904194008999540e-01  0.0000000000000000e+00  0.0000000000000000e+00  9.8906609745389451e-01  0.0000000000000000e+00  0.0000000000000000e+00  1.0299696774347717e+00  1.0287378813059511e+00  1.0114599170234249e+00  1.0115325806241533e+00  1.0294982178612755e+00  1.0291161916356828e+00  0.0000000000000000e+00  9.2328153017769476e-01  0.0000000000000000e+00  0.0000000000000000e+00  8.0518372296211338e-01  0.0000000000000000e+00  0.0000000000000000e+00  4.1857645731533694e-01  0.0000000000000000e+00  0.0000000000000000e+00  6.3584647411418616e-01  0.0000000000000000e+00  4.1846527265161754e-01  1.5269696322789553e-01  0.0000000000000000e+00  1.0117961542175971e+00  0.0000000000000000e+00  8.0565984387259426e-01  0.0000000000000000e+00  9.2325233868098999e-01  6.3619714347864231e-01  8.5870078838469732e-01  9.4184994707330694e-01  3.5573901742250519e-01  8.7190223359737185e-01  8.6090498751557942e-01  9.5464168071977595e-01  9.5527370180569671e-01  9.1444439028174873e-01  8.1790031502674054e-01  8.0110385048844912e-01  9.4138637239965473e-01  1.3148897421509950e-01  8.4091339685109001e-01  7.3693382888720171e-01  9.0803739771920455e-01  1.0120388576733803e+00  9.9226872716941839e-01  1.0056116133287016e+00  1.0282165621754125e+00  1.3217831862486368e-01  7.9674040603306517e-01  9.1403096132171902e-01  1.0205982793280768e+00  1.0338856075902709e+00  9.5228116900867454e-01  1.0293588921003662e+00  1.0187242788889177e+00  1.0070757177884779e+00  9.4855701426708228e-01  1.0284402182106689e+00  1.0058717490478855e+00  8.6082598181821479e-01  1.0158366047237302e+00  1.0270621324957623e+00  6.4307162927311978e-01  1.0119382409078497e+00  9.9844154750875513e-01  9.3893617390959927e-01  9.9021915423114293e-01  1.0182988610713071e+00  8.8831959143982975e-01  7.7245194307649867e-01  1.0309685579770558e+00  7.6573378516160351e-01  9.7799271370230467e-01  9.9076398702232660e-01  1.0214998834022355e+00  6.1323126998304089e-01  1.0153540575251379e+00  1.0237139729910758e+00  1.0305070822670037e+00  1.0188940442721786e+00  9.2773263648809023e-01  9.7440026731909291e-01  9.2754757486929951e-01  8.4080918052087306e-01  8.7142777872511334e-01  3.7244970898519342e-01  9.5780345885969553e-01  9.2435003462740695e-01  1.0002198956998680e+00  3.7803437891887792e-01  2.9054051980691264e-01  8.3970850224886884e-01  8.9931713363442600e-01  9.9993843717788777e-01  4.1125098093101237e-01  6.8926745261046507e-01  9.9946197863301156e-01  9.8670132999428328e-01  9.5865939530519106e-01  4.1000897420119092e-01  6.1526664887230509e-01  5.2749268752194345e-01  3.5996117166258468e-01  1.0152612039235718e+00  8.1296687199572049e-01  9.3815273472535010e-01  1.0055669585204809e+00  8.5340615859898927e-01  8.9055309700495944e-01  9.7585628029322702e-01  1.2740395445228656e-01  1.0242825578464523e+00  1.0167035422073434e+00  1.0344647860049496e+00  1.0287342216557673e+00  9.9436171178837662e-01  9.5436772912275691e-01  3.1192111743690709e-01  1.0305913362591550e+00  9.7268193169441886e-01  1.0000983522673494e+00  6.4163640929453247e-01  5.1965873781502325e-01  7.8083130487569408e-01  3.8677130883066491e-01  4.9766435674146237e-01  5.2203085026730600e-01  9.3611249824490717e-01  4.0742849860337821e-01  1.4333489308985861e-01  1.0141780219094487e+00  1.5248789761934090e-01  9.4548145461393840e-01  1.0337354017202689e+00  7.7214524245588889e-01  7.2771321031622282e-01  9.7257554423314851e-01  1.0260471736942696e+00  7.1618728731484171e-01  1.0137337902605501e+00  1.3663391171110034e-01  3.1005562805102715e-01  2.1763154161421569e-01  7.7360826865700927e-01  7.2192762487934925e-01  8.0157551948259564e-01  1.2668350278586016e-01  6.3369698832133925e-01  9.1125379679602492e-01  2.7752349181110292e-01  1.0097179140104859e+00  1.4690392304708672e-01  3.9927794737506211e-01  5.6957684228752870e-01  4.9592691510399234e-01  3.8021572756974487e-01  9.8979935254183460e-01  8.80483