<?xml version="1.0"?>
<VTKFile type="UnstructuredGrid"  version="0.1"  >
<UnstructuredGrid>
<Piece  NumberOfPoints="2513" NumberOfCells="4852">
<Points>
<DataArray  type="Float64"  NumberOfComponents="3"  format="ascii">-1 1 0  -1 -1 0  1 -1 0  1 1 0  0 -1 0  1 0 0  0 1 0  -1 0 0  0 0 0  -1 -0.5 0  -0.5 -1 0  -0.5 1 0  -1 0.5 0  1 -0.5 0  0.5 -1 0  1 0.5 0  0.5 1 0  0.4166666666666666 -0.4166666666666667 0  -0.4166666666666667 0.4166666666666667 0  -0.25 -0.5 0  0.5 0.25 0  -0.4861111111111112 -0.06944444444444445 0  0.0732758620689655 0.507183908045977 0  -0.625 -0.625 0  0.625 0.625 0  0.7380952380952381 -0.25 0  -0.7099116161616161 0.2105429292929293 0  -0.25 0.7380952380952381 0  0.105392156862745 -0.6348039215686275 0  0.6770833333333334 -0.6770833333333333 0  -0.6770833333333334 0.6770833333333334 0  0.3472222222222222 -0.06944444444444446 0  -0.7264957264957265 -0.3044871794871795 0  0.3141940982507127 0.7297313660835709 0  0.02049587951122483 -0.3227479397556124 0  -0.2690972222222223 0.1475694444444444 0  0.3859500089908372 -0.7274430156831472 0  -0.2228477945123298 -0.1761765495248019 0  0.2182539682539683 0.1884920634920635 0  0.75 0.375 0  -0.145442219440968 -0.7602211097204841 0  0.7088913690476191 0.0427827380952381 0  -0.75 -1 0  -1 -0.75 0  1 0.75 0  0.75 1 0  -0.7439982703698937 -0.04614153195464455 0  -0.4609235096577606 -0.3356498099556895 0  0.4063134471431929 0.4895621842856023 0  0.25 -1 0  -0.25 -1 0  -0.75 1 0  0.75 -1 0  -1 -0.25 0  -1 0.25 0  1 -0.25 0  -0.25 1 0  1 -0.75 0  -1 0.75 0  0.25 1 0  1 0.25 0  -0.4041423272138783 -0.7597141090712928 0  0.06500839607911253 0.7578103030529481 0  -0.1572801182352047 0.3838997021864289 0  -0.6528005242053915 0.4409494757946086 0  -0.4930160984848485 0.1544744318181818 0  -0.4732142857142858 0.7752976190476191 0  0.6398809523809523 -0.4538690476190476 0  0.5166054117396399 -0.2161233620965164 0  -0.002273787244753427 0.2232363985975174 0  0.1500564496765022 -0.1524955293952667 0  0.2016720420046758 -0.4410343282803009 0  -0.08495178036419618 0.6274139771124571 0  -0.8367311471133162 0.3642591720794645 0  -0.8333333333333334 -0.625 0  -0.594323836800685 -0.8231079456002283 0  -0.4466957714776065 -0.5349126855671806 0  0.8125 0.5625 0  0.78125 0.78125 0  0.5091392650016769 0.7947130883338923 0  0.125 -0.8382681931833136 0  -0.8184523809523809 -0.8184523809523809 0  -0.07781530426104531 -0.5819319697006881 0  0.5085055196703295 0.04967610411902112 0  0.2918471072074933 -0.276017202318847 0  0.5120763537765269 -0.5898771553229597 0  0.625 -0.8585349462365591 0  0.8158532234335381 -0.8158532234335381 0  -0.5198088446315396 0.5739411553684605 0  -0.8585349462365591 0.625 0  -0.8150493805516597 0.8156205699829586 0  0.8585349462365591 -0.625 0  -0.2688268348649726 0.5439331383603209 0  0.8242100426758139 -0.4436043596336612 0  0.5833756314287952 0.4479378157143976 0  0.8690476190476191 -0.125 0  -0.125 0.8690476190476191 0  -0.8692745600729823 0.125 0  0.8696725120759167 0.125 0  -0.625 0.8711516477451908 0  0.2339522463269718 0.3879558377955778 0  0.2453709502295031 0.5655822922838026 0  0.1730610651637797 0.02021709580868947 0  0.3245402594056757 -0.5644672020485209 0  -0.7291666666666666 -0.4816595441595442 0  -1 -0.375 0  -0.5811140848639904 -0.2127276307675001 0  0.673332592838314 0.2158348143233718 0  0.375 1 0  -0.5714768890989919 0.2985103444040069 0  -1 -0.125 0  -0.8453692574786325 -0.1875 0  -0.3144549134065865 -0.02408675326008025 0  -0.2898414972096258 -0.3336092734780093 0  -0.1075052092206287 -0.4224330421314983 0  -0.05043970703604117 -0.1652278959397459 0  0.6459672950297897 -0.1113415301525317 0  0.4645210271029513 0.6398480556579343 0  0.3512863754411909 0.0937979496253573 0  -0.6063160985568274 0.03891469652249891 0  -0.3428819444444445 0.8690476190476191 0  0.625 1 0  -0.1602164796159982 0.02697860906625157 0  0.04648110064133829 -0.4808416424239687 0  1 0.875 0  -0.3836102479201657 0.6484936449177356 0  -0.3776011723096096 0.263078478984336 0  -0.6024978259969829 -0.3949628096211138 0  0.125 1 0  0.2010781308272777 0.8456221018461906 0  0.2822509696388829 -0.845902544691141 0  -0.3285533674953515 -0.6289773550938936 0  0.3461306793221754 0.278777492464833 0  0.4737475672408696 -0.8508448959534423 0  0.2384632828836344 -0.7029523187242811 0  -0.004777287059791593 0.3759269695907358 0  -0.8499735021850066 -0.3912320205328522 0  0.1222536293721587 0.2963971539625205 0  -0.3769456520999688 -0.203572526805711 0  -0.2749617205755651 -0.8464290792698902 0  0.004805888512766143 -0.747174355248311 0  -0.125 -1 0  -0.06001061822252458 -0.8724007765244854 0  0.875 0.4375 0  0.854421179608893 0.271342359217786 0  0.875 1 0  -0.1499861095763589 0.2358309656934888 0  0.3381943639137225 0.8663061796405532 0  -0.7853090110442228 0.4998412775277108 0  0.7398165998560814 -0.5535192694951373 0  0.1580042122341573 -0.3100246140259917 0  -0.7291666666666667 -0.7142857142857142 0  -0.375 -1 0  0.6483368386154684 0.8514905990110488 0  -0.1295370103291928 -0.2826118305021242 0  0.07458201853700455 0.1123894386563915 0  0.6146465857036327 -0.3161203659316075 0  0.5551898493894731 -0.740296118159085 0  0.375 -1 0  0.482702798370208 -0.084133350091034 0  0.87890625 0.68359375 0  -0.05917195534525846 0.4971092425697621 0  0.1260710309213975 0.6343750312956699 0  0.8690476190476191 -0.3077066815262848 0  -0.2912010232560567 0.3668168386732139 0  -0.875 1 0  -1 0.875 0  1 -0.875 0  0.875 -1 0  -0.8689564281364567 -0.006189266075306407 0  -0.7449425635110547 0.08458938160051771 0  -0.7150266761936593 -0.1739444581417552 0  -0.5260034831318311 -0.711099823962112 0  -0.4724626808827322 -0.871722230709409 0  0.4734436795977052 0.377714794132168 0  -0.875 -1 0  -1 -0.875 0  0.6927189078571988 0.5156567235715964 0  -0.3742497615796874 -0.4296005251260107 0  -0.1969436423297711 -0.6387157229772615 0  -0.6179496409766825 -0.08933356056510935 0  -0.424405057115988 0.04452428810878029 0  -0.08479048335844169 0.1279607007132633 0  0.003830300099055113 0.8712085230656206 0  0.8748778838820267 -1.379218479898026e-05 0  -0.375 1 0  -0.625 1 0  1 0.125 0  -0.125 1 0  1 -0.375 0  1 -0.125 0  1 -0.625 0  0.625 -1 0  0.125 -1 0  -0.625 -1 0  -1 -0.625 0  -1 0.125 0  -1 0.375 0  -1 0.625 0  1 0.375 0  1 0.625 0  0.6325660748712082 0.3335187599557389 0  -0.06420945895056573 0.7549874027425891 0  -0.8769015540914771 0.2478802253893416 0  0.871875 0.871875 0  -0.6868091492840067 0.3270978624973681 0  -0.5363597469565949 0.412994850055505 0  -0.6803734992638302 0.5574295000651103 0  -0.7076253581162534 -0.8803439094224437 0  -0.8778089002295137 -0.5106896447504627 0  -0.3860184984222981 0.530566778071246 0  0.6109900617121508 0.1128453077697081 0  0.3896945134930274 -0.1915382873255086 0  0.7605656944697778 -0.06822134873122943 0  0.3576151269893478 0.5948388411612135 0  -0.5689902680792265 -0.5143596830118065 0  0.6262446286847614 -0.5735657901943212 0  0.2030558252325225 -0.5625263842513452 0  0.6123273142928579 0.7407533260723429 0  0.4016460890123554 -0.3042863223111857 0  -0.59039693199147 0.7578418819188018 0  0.7276932493917544 -0.3705808024528924 0  0.5222536818742854 -0.4713886230400014 0  -0.5101986527137737 0.8848365765607674 0  0.510560172809238 0.5356013299918891 0  -0.3603569195756083 0.75823710606415 0  0.1967279277813232 0.728226870058472 0  -0.6086880986371127 0.1545624071548516 0  -0.38105366729386 0.1511189987807864 0  -0.2944659463671584 -0.7359061804869591 0  0.5060729154966499 -0.3475227845833823 0  -0.09281616240412746 -0.06197858250969457 0  0.7649739583333334 0.6673177083333334 0  0.7628906249999999 0.890234375 0  -0.2666864184909611 0.2585504071132311 0  0.3635064892129658 0.3878003602709461 0  -0.2339409722222222 0.8901937905844155 0  -0.1718792125974916 -0.8957733325456778 0  0.1001768566329531 0.4023510017391879 0  0.3120260172693757 -0.4540546875576884 0  0.7804062804433681 0.1896628610854537 0  0.4087715451998049 0.187961780041608 0  -0.1584963477271457 0.5451611892421655 0  -0.8926817849258324 0.463022006336401 0  0.2338091473445219 -0.07576267331277289 0  0.08171112182813692 -0.2349087687359925 0  0.04635385178956847 -0.1044635073718474 0  -0.4377391632114205 -0.6448874471423088 0  -0.1907678351227189 0.6480215912813945 0  0.300605946475244 0.4741444604171038 0  -0.2145033720757486 -0.06751709909419711 0  0.6069191921170397 -0.005492331448357812 0  0.0214718770761248 0.6032397936031719 0  0.5476675683364878 0.8992752415326501 0  0.4387475014316537 0.9093708953002239 0  -0.4932997685306436 -0.4381009159993523 0  0.2515197695339056 -0.1791673369138964 0  -0.7291666666666667 -0.6088789682539681 0  -0.9166666666666667 -0.6875 0  0.620579540363709 -0.2122431523583302 0  -0.484950136419973 0.6719440339397442 0  0.2857044415400258 0.0137589173127316 0  -0.8945708364098356 -0.288306105327986 0  0.4043102720140535 0.7842914560451557 0  0.04123256238752064 -0.9026968245801402 0  0.2003676884403109 -0.9091888601740487 0  0.1068775558538842 -0.7373377130403223 0  -0.4804566783514427 -0.1763307203045643 0  0.108286342087769 -0.3993789328997278 0  -0.191883080105361 -0.3640821726430649 0  -0.07025064492006244 0.2984876656890053 0  -0.7039324641409584 0.788312126296613 0  -0.7311286585775438 0.8932502354831682 0  0.5171409396884947 0.1503852691889257 0  0.4229392823658633 -0.003216522184234835 0  -0.5621736087218259 -0.919558629836806 0  -0.626474064879544 -0.7266572613636506 0  0.2446828746617422 0.2867616783302419 0  0.1759429608742923 0.4776611759306416 0  -0.3468240303741654 -0.5260416435617549 0  -0.7465808808425306 0.4069574477998361 0  -0.7819962170660292 0.2802441065650652 0  -0.3742623214119594 -0.8547800509641984 0  0.1014498009713561 0.8506721983266377 0  0.4285217620918213 -0.5230190595570253 0  0.4091738370487775 -0.6256346204225141 0  0.78125 0.46875 0  0.90625 0.53125 0  -0.4791801348852565 0.2553992655702126 0  0.7843318610782772 -0.7086046956885941 0  0.8909728264971901 -0.7355183796514634 0  0.7041908166528879 -0.7830649143180282 0  0.7311821352
[...]
<PointData  Scalars="velocity-2"> 
<DataArray  type="Float64"  Name="velocity-2"  format="ascii">0.0000000000000000e+00  0.0000000000000000e+00  0.0000000000000000e+00  0.0000000000000000e+00  0.0000000000000000e+00  1.5182408981835893e+00  0.0000000000000000e+00  1.5181890383175474e+00  1.5169848848149581e+00  1.1400358891814737e+00  0.0000000000000000e+00  0.0000000000000000e+00  1.1393920207038148e+00  1.1401882242099479e+00  0.0000000000000000e+00  1.1397829016991268e+00  0.0000000000000000e+00  1.2555506262746925e+00  1.2554014853856390e+00  1.1406444385578780e+00  1.4232570104868372e+00  1.5107511275838210e+00  1.1284547676324193e+00  9.2661695554221302e-01  9.2695515622177438e-01  1.4235807326586101e+00  1.4505587404916778e+00  6.9252400886922572e-01  9.0804911354507400e-01  8.2403055873974340e-01  8.2434155947923315e-01  1.5102680916286233e+00  1.3779163087229001e+00  7.1156205993185284e-01  1.3600668776357461e+00  1.4849667728863996e+00  7.1652048861350170e-01  1.4697512193981599e+00  1.4636970448097444e+00  1.3044172772847296e+00  6.4213357903910451e-01  1.5149856592141613e+00  0.0000000000000000e+00  6.6636187645874756e-01  6.6661279559539144e-01  0.0000000000000000e+00  1.5148981994657231e+00  1.3465233895039770e+00  1.1547291315490165e+00  0.0000000000000000e+00  0.0000000000000000e+00  0.0000000000000000e+00  0.0000000000000000e+00  1.4235107949683163e+00  1.4235625145369495e+00  1.4234560832420369e+00  0.0000000000000000e+00  6.6640845125946047e-01  6.6634895249008419e-01  0.0000000000000000e+00  1.4237676554876544e+00  6.4396133222268392e-01  6.4799029156602317e-01  1.2949668771292548e+00  1.2235904974035643e+00  1.4810906113301248e+00  6.0743928023933891e-01  1.2058079868454756e+00  1.4478038795458217e+00  1.4424586185944497e+00  1.4822688164587041e+00  1.2236329188832864e+00  9.2207664428411262e-01  1.3173577129216325e+00  9.2703513582363906e-01  4.9073806621259430e-01  1.0853889528803276e+00  1.0393726740599565e+00  5.9317435350590475e-01  5.6057854599937940e-01  4.5240560190393403e-01  5.0320726506808133e-01  1.0055745326786778e+00  1.5140472088890149e+00  1.4024362306965825e+00  9.9110034816143566e-01  4.0029471422256951e-01  5.0961488035207914e-01  1.0190787341029550e+00  9.2681654707324335e-01  5.0989183868014043e-01  9.2717367048772970e-01  1.0706856271208487e+00  1.2202560097297979e+00  1.2137442880966873e+00  1.4939793360263944e+00  3.7236032032695532e-01  1.4944580932243940e+00  1.4941644684585123e+00  3.6686986463906196e-01  1.2899289602177662e+00  1.0339309256245266e+00  1.5174656678722771e+00  1.0357557449418417e+00  1.1671334463640510e+00  1.3054634875169986e+00  1.4501143267926488e+00  1.4472303355498468e+00  0.0000000000000000e+00  1.3824763411490495e+00  1.4946719813318077e+00  1.4644176038377161e+00  1.5160171228521648e+00  1.3496345000936352e+00  1.2476568927600977e+00  1.4768277563215013e+00  1.4988398794142788e+00  8.9848902138130682e-01  1.5044720926389497e+00  1.5154359164526028e+00  3.7192435123334194e-01  0.0000000000000000e+00  1.5177083108492921e+00  1.1676639130634190e+00  3.5704838582307447e-01  8.8156445811390349e-01  1.4124011731161172e+00  1.2821734764327044e+00  0.0000000000000000e+00  4.3392997587452609e-01  4.3278814202816079e-01  9.1960959582072599e-01  1.4003482461612851e+00  4.2045552613725534e-01  7.6938343065278847e-01  1.3042590267323040e+00  1.2861587646828248e+00  1.3851097893400364e+00  1.4543625576077830e+00  4.3197838108300968e-01  6.7245180526057280e-01  0.0000000000000000e+00  3.6354425433823290e-01  1.2283803601194645e+00  1.4066295483314470e+00  0.0000000000000000e+00  1.4338272047985201e+00  3.7989147108550664e-01  1.1402066637101691e+00  1.0540327407953425e+00  1.3724382431908779e+00  7.4559923624762736e-01  0.0000000000000000e+00  4.1777346562578793e-01  1.3970265031131937e+00  1.4985062572853018e+00  1.3668547701966409e+00  6.8769189582141410e-01  0.0000000000000000e+00  1.5067518877704635e+00  8.1076943206869667e-01  1.1442254171288906e+00  9.0886110945340604e-01  1.3746195198332867e+00  1.3142998740073717e+00  0.0000000000000000e+00  3.5759120999647148e-01  3.5706108183140567e-01  0.0000000000000000e+00  1.5178815414054903e+00  1.5060289274335712e+00  1.4716330855248176e+00  7.5165491801392992e-01  3.6557788565957350e-01  1.3010008887336264e+00  0.0000000000000000e+00  3.5714780342637892e-01  1.1159190356077839e+00  1.2388154343080495e+00  9.0071434806237827e-01  1.5058859290030502e+00  1.5144334267543831e+00  1.4928424746067666e+00  3.6753794428044428e-01  1.5177021661859273e+00  0.0000000000000000e+00  0.0000000000000000e+00  1.4947873517270442e+00  0.0000000000000000e+00  1.3053544153400922e+00  1.4946655330800165e+00  9.2688537053384989e-01  0.0000000000000000e+00  0.0000000000000000e+00  0.0000000000000000e+00  9.2703476730016765e-01  1.4944032088193171e+00  1.3052217197590397e+00  9.2739718319970987e-01  1.3056001607339036e+00  9.2714562508603560e-01  1.3496729944160981e+00  6.5446152903654531e-01  1.4251524163245592e+00  3.6453400173835199e-01  1.3560560946699289e+00  1.2598399657846071e+00  1.0477914799516208e+00  3.4341245431472472e-01  1.1234899855652591e+00  1.0917146391484753e+00  1.4984080396101191e+00  1.4625258671941064e+00  1.5107092867732412e+00  9.8221932196999562e-01  1.1177647726176594e+00  1.0198416719946402e+00  1.0388411968010092e+00  6.8700163605357434e-01  1.3777808655068902e+00  6.4807555651614279e-01  1.3097334338971744e+00  1.1822520801958927e+00  3.3085574439680815e-01  1.0835890228580531e+00  6.4758200314712178e-01  7.1524377979579323e-01  1.4812999884815861e+00  1.4832097018235171e+00  6.9782279388804958e-01  1.3351871099848731e+00  1.5123406399380321e+00  8.4400991616464460e-01  3.1559457475488301e-01  1.4163191439157625e+00  1.2903706949258722e+00  3.1583416210126691e-01  3.0013118599885419e-01  1.2728681479761492e+00  1.2055549367582774e+00  1.4629131346286637e+00  1.4640377853239597e+00  1.0683809327209985e+00  1.1933047883383632e+00  1.5091317437050984e+00  1.4346753156663754e+00  1.5012731861670470e+00  8.8935814035494121e-01  8.8226329980693841e-01  1.1772378050104257e+00  1.5102887420649931e+00  1.5184306953860649e+00  9.6729735292677999e-01  2.9157981455465448e-01  2.6352438312203696e-01  1.2276080404896925e+00  1.4686482035612287e+00  9.5737852495490106e-01  8.0238336326801096e-01  1.4494876943369082e+00  8.3472280798512410e-01  1.5173384263360661e+00  1.3920755709329571e+00  5.8632380962598130e-01  2.8121594964819996e-01  2.6332071312734739e-01  6.9423977471968379e-01  1.4705773843567438e+00  1.2760401869588807e+00  1.3174614948609804e+00  1.3829890297493288e+00  5.7644233399265543e-01  3.0778166226254394e-01  1.4835925945979771e+00  1.5175062307416989e+00  2.3488076327188703e-01  7.1873496625446354e-01  1.3930957456699240e+00  1.1726603923122432e+00  1.0993108693084426e+00  1.2675065821171392e+00  1.3984829133032621e+00  4.0966771744460900e-01  4.2078106101524648e-01  1.1044030477594879e+00  9.2545847476143717e-01  1.1864251198263098e+00  1.0913209584544803e+00  1.4191183062172883e+00  7.5839748789733308e-01  6.9858538197327014e-01  5.8864366517050570e-01  3.1461205119906471e-01  5.1729503562093526e-01  7.4811817425292071e-01  7.5864317153177352e-01  1.2119666350142544e+00  2.4708549636815610e-01  3.3361673646939682e-01  5.8601259816725371e-01  7.2918897659421078e-01  2.5221374345216169e-01  3.0970940302809086e-01  8.8019823532868646e-01  8.7592637162263964e-01  4.8475658947529365e-01  8.0904364325638845e-01  1.0119865342776371e+00  1.0643023152315367e+00  9.8471019657706993e-01  1.4677615207134946e+00  1.4575661751937847e+00  1.5020221778477958e+00  1.2062424297035668e+00  1.0543718535190967e+00  2.0776074521695015e-01  1.1022455156727970e+00  1.2813679791906152e+00  6.0138756016277650e-01  9.4597816893524977e-01  1.1503530993705613e+00  1.1143333311188435e+00  1.3265228212661089e+00  1.3994633613411833e+00  1.5103828340983938e+00  8.6198859895785374e-01  1.5037049460235838e+00  6.0213088222647315e-01  7.8847007822190462e-01  1.4959227973030089e+00  1.3821371188429752e+00  1.1949034763021433e+00  2.0167991605075591e-01  1.4778039257870250e+00  1.5045993764486512e+00  1.4472020821065650e+00  1.2283489129952965e+00  1.5167270482671829e+00  1.2543361616184370e+00  1.0821617850718579e+00  8.6589160833915091e-01  1.9244673091512762e-01  1.4764149471165555e+00  1.5122848750760234e+00  1.5125340205185782e+00  1.4657219675592352e+00  1.4851761322050117e+00  1.9816664147624932e-01  7.6489603592212052e-01  1.9472330237965160e-01  1.3702318222919134e+00  1.9279125872032685e-01  8.8672432419318425e-01  1.5122780607727788e+00  1.8783562436326190e-01  1.2850282136299700e+00  1.0677736429545781e+00  1.0675467671086483e+00  5.1475449612077673e-01  1.3700087394445730e+00  1.5118978318242859e+00  1.5121697799716294e+00  1.5119443997519408e+00  1.8452641302462355e-01  2.3529794091367198e-01  1.9304867222679892e-01  1.4904591181322355e+00  1.4490142889335937e+00  1.0702995645351543e+00  6.0736074153577613e-01  1.8560695784397205e-01  8.2119792487752452e-01  1.3109545751043667e+00  7.9273903750493591e-01  1.5165149786690610e+00  1.4677098873145895e+00  5.6525490600689543e-01  7.0107888244740701e-01  1.5160778299268725e+00  1.4926447443431923e+00  1.3363970260923206e+00  1.4307087833076313e+00  1.9198609304622505e-01  1.4149117496066828e+00  1.2495873664776935e+00  1.3392527907361862e+00  1.4081459718086740e+00  1.2831558422167730e+00  1.5009935599944899e+00  1.4330810805132568e+00  8.5489085922828656e-01  5.5780473454714286e-01  1.4086851746797082e+00  1.4385386686333452e+00  9.9180182949941476e-01  1.3241299003353435e+00  9.8814871275953975e-01  1.4505317442758623e+00  1.4860637931975651e+00  1.4697870704487610e+00  1.3569396446233397e+00  1.5159676034947516e+00  7.7695334400902782e-01  2.8770849231000484e-01  1.3574284520741846e+00  4.2103091032344758e-01  1.3533305385550005e+00  1.1497139821121041e+00  1.2645069454515969e+00  1.3420171106895022e+00  1.0551253883539591e+00  1.4459231294487525e+00  1.4168289551798234e+00  1.3087541220631007e+00  1.1848726807147800e+00  1.4937752760702940e+00  0.0000000000000000e+00  1.5153826229184559e+00  1.5066124321302778e+00  1.2162367528405116e+00  1.2049628572466120e+00  5.8449011122156691e-01  1.5175736671574598e+00  1.5031236550292999e+00  9.0720568999470041e-01  1.1903205988965890e+00  1.3585364041535868e+00  9.5120397700969617e-01  1.0353182399338479e+00  0.0000000000000000e+00  1.4224345557747309e+00  1.8614811588057073e-01  5.3704488712108112e-01  1.4951374968011237e+00  4.7723861586042743e-01  2.3481961464502632e-01  9.0911732747814011e-01  1.2677398598297822e+00  1.3360322413465500e+00  2.1311142522855345e-01  1.0538771908152766e+00  4.8106579786880865e-01  6.1586266351105812e-01  1.2917669893951791e+00  1.4532029685407004e+00  6.1440449218581328e-01  1.4540056268295756e+00  1.8555308169972454e-01  1.4123951585540158e+00  1.3402003937810967e+00  5.9399995649975768e-01  9.6659326583572625e-01  8.5016490083620078e-01  1.4924097218685635e+00  5.7533993620746338e-01  5.9808637746029791e-01  9.6402044023683564e-01  0.0000000000000000e+00  1.3676927604082552e+00  0.0000000000000000e+00  9.9682333115069022e-01  1.2714025095408961e+00  1.3206617769047493e+00  1.1157793431006813e+00  1.5176726898227415e+00  1.5036328913721193e+00  1.4392861362026514e+00  1.2227510508380519e+00  1.3815503806129614e+00  0.0000000000000000e+00  2.1551321322925088e-01  9.2646288407915400e-01  1.8419804442590634e-01  7.3927835492561367e-01  1.1905899036189147e+00  4.1053736655181439e-01  1.0309445766227385e+00  7.9976252347545684e-01  6.4359474487234158e-01  3.1941986634104652e-01  0.0000000000000000e+00  4.7514555199738817e-01  4.8085562294088124e-01  5.1342545179622678e-01  1.5145742645105724e+00  0.0000000000000000e+00  9.9792094015893440e-01  8.0666847704303979e-01  1.5160173688113399e+00  1.3721723715972292e+00  1.4643195628683108e+00  1.4418659031977810e+00  1.3705547670193139e+00  1.4577647026401039e+00  1.5169467333237661e+00  6.9321184756102516e-01  1.1006174232940911e+00  8.5741563170148916e-01  1.1264870067737787e+00  1.4967464988170005e+00  1.5036603007892064e+00  0.0000000000000000e+00  9.9248079158813718e-01  2.1101081689035250e-01  2.5705561982334452e-01  1.1785274949143936e+00  1.2337575285386526e+00  1.4287151342191349e+00  2.4146720306986405e-01  7.5028785693229350e-01  1.4700237881579703e+00  1.3218069515726480e+00  1.4254848137450389e+00  1.1813458891562718e+00  1.4793550759034071e+00  1.5093179108223727e+00  1.2280194387087251e+00  1.8914590239809959e-01  2.0317084987808673e-01  2.0765524684722719e-01  1.4514481002691362e+00  5.5081092940071230e-01  1.3071380641338903e+00  1.4975527104777779e+00  1.4742346589409110e+00  1.4384454378179641e+00  9.2880590584129930e-01  1.1225523008371441e+00  4.6241971571559010e-01  1.9659431076014625e-01  1.4816873060590274e+00  1.2287494184295225e+00  1.2983782186601844e+00  1.4145013129643302e+00  1.4098238638206380e+00  1.4045126818073104e+00  1.1855244125302400e+00  1.1403158708630059e+00  1.2930977917877817e+00  1.8556261896182155e-01  0.0000000000000000e+00  1.1491216791488090e+00  1.4970626450559121e+00  1.5008917172200196e+00  1.4524713156252032e+00  5.5155347909559960e-01  2.0789860248809511e-01  1.5174912935989009e+00  7.0531211414664163e-01  7.3769065612196039e-01  1.3026626877319203e+00  1.3512894230675878e+00  6.6760115429993805e-01  5.3969963730880044e-01  8.0647915571949269e-01  8.4315416379884200e-01  1.5064199279019050e+00  6.2875049106142333e-01  8.2849554866374087e-01  8.3938125692971710e-01  1.3803145666382790e+00  9.7439264774563727e-01  9.9792923402561429e-01  1.4182257746778271e+00  1.3705595482303152e+00  7.5882092761704667e-01  1.1942255716632235e+00  3.7904958942335520e-01  1.1335041498506047e+00  1.4689073767122613e+00  1.9831156346472120e-01  4.4721176740830754e-01  1.5154567450344540e+00  4.7244344918696951e-01  5.7369784406087254e-01  4.5228914360814387e-01  8.9057287026574761e-01  1.3441630806185632e+00  1.5180909754810146e+00  5.5725984030519982e-01  1.3980136671524581e+00  1.4431480440566280e+00  1.0986924850447091e+00  1.0900504169378511e+00  6.3943964890208527e-01  1.0462981573461536e+00  1.0398495497180618e+00  1.4243549976959322e+00  1.4543501488581405e+00  1.2658966289642186e+00  1.5173023783819597e+00  9.0963712707948186e-01  1.4935946217399030e+00  1.3980818336585674e+00  4.7399696418073428e-01  1.3365872936828613e+00  7.8543142125686172e-01  1.5070255111526036e+00  8.4965606544081596e-01  1.9572442024549017e-01  4.0191588937086231e-01  5.2409666531462729e-01  6.7548833124445751e-01  1.4920370297751810e+00  1.4647969999392594e+00  1.4851474512230358e+00  1.0223661388675946e+00  1.4111977187657161e+00  1.3700608998882533e+00  1.2467314643967726e+00  1.2822029877912438e+00  1.5116553083294777e+00  0.0000000000000000e+00  1.0947754212783081e+00  9.6745012416093701e-01  7.4739333950721409e-01  6.2659313954078033e-01  8.8984349767577098e-01  7.7953246096158602e-01  1.5166952540177117e+00  5.8063295961650729e-01  1.3350122535968363e+00  9.3696816505203062e-01  1.0152926093284800e+00  1.1755453093916506e+00  0.0000000000000000e+00  5.1753824218627875e-01  4.9096663890175646e-01  8.0292386890964251e-01  7.4725693117022729e-01  7.9577226764210585e-01  1.2752337914279583e+00  1.1857793364219187e+00  1.3737428161115850e+00  1.4147905814411528e+00  7.8294059622437484e-01  0.0000000000000000e+00  1.8659835669213315e-01  4.3770027952339124e-01  1.4981902695882576e+00  5.5818900834256735e-01  1.0673988345329783e+00  1.4735831996583499e+00  1.5079831129850707e+00  7.6521547934767176e-01  1.1320619362361288e+00  8.4770691313047208e-01  2.9625978120382435e-01  1.4391489323828677e+00  1.3537395793246121e+00  1.5123325721664658e+00  1.5172672585212117e+00  2.5842074704932766e-01  8.0419842473371739e-01  1.9542256069617495e-01  1.5182291177296261e+00  2.5291724873262039e-01  1.4224606139425413e+00  1.0393807397926442e+00  8.0284470741865366e-01  0.0000000000000000e+00  0.0000000000000000e+00  0.0000000000000000e+00  1.8451408989357851e-01  0.0000000000000000e+00  0.0000000000000000e+00  1.3706313528733565e+00  5.1801049174127856e-01  0.0000000000000000e+00  0.0000000000000000e+00  1.3703706304429402e+00  0.0000000000000000e+00  0.0000000000000000e+00  1.5120434817341801e+00  1.5117849950814646e+00  1.4647969457131726e+00  1.4647814233929910e+00  1.5120602853387641e+00  1.5122591871635074e+00  0.0000000000000000e+00  1.2287324685222309e+00  0.0000000000000000e+00  0.0000000000000000e+00  1.0391381951194987e+00  0.0000000000000000e+00  0.0000000000000000e+00  5.1749994335971283e-01  0.0000000000000000e+00  0.0000000000000000e+00  8.0277098447137107e-01  0.0000000000000000e+00  5.1761866028889592e-01  1.8554656286418891e-01  0.0000000000000000e+00  1.4649905746582408e+00  0.0000000000000000e+00  1.0395659088026128e+00  0.0000000000000000e+00  1.2285733153047214e+00  8.0264266453850597e-01  1.1212163397898651e+00  1.2647615298129704e+00  4.3867716068828128e-01  1.1408138030477679e+00  1.1228046635939846e+00  1.2895035417940717e+00  1.2887560636091058e+00  1.2152423300879760e+00  1.0599192705994616e+00  1.0352654349737183e+00  1.2641441983019714e+00  1.6004958476602815e-01  1.0927589675564597e+00  9.3997992842772105e-01  1.2015648458109935e+00  1.4648792619005240e+00  1.3809624831438667e+00  1.4269235773437898e+00  1.5109604518214581e+00  1.6161099615588950e-01  1.0276107449047183e+00  1.2122410648398267e+00  1.5000641316800021e+00  1.5179995597323459e+00  1.2876211423306720e+00  1.5105325518527313e+00  1.4931728546713177e+00  1.4412629648481246e+00  1.2781233015607965e+00  1.5120489463381730e+00  1.4312788047762077e+00  1.1231114086392806e+00  1.4812381531351113e+00  1.5065088260872455e+00  8.1202715154474392e-01  1.4702114555496006e+00  1.4045209976084150e+00  1.2592891003968294e+00  1.3743766383324025e+00  1.4879389154412099e+00  1.1720236130137229e+00  9.9318396147756627e-01  1.5125281854870865e+00  9.8151450316936728e-01  1.3400065651462587e+00  1.3765845566732369e+00  1.5011767051303317e+00  7.6949409840598304e-01  1.4799290760255832e+00  1.5035071705221941e+00  1.5137355637554197e+00  1.4946985294619277e+00  1.2378436614275776e+00  1.3329319051740411e+00  1.2370654205000859e+00  1.0911120492906357e+00  1.1399178657798956e+00  4.6061586439054614e-01  1.2978543259032334e+00  1.2351105313655864e+00  1.4099219454893819e+00  4.6629688008717962e-01  3.5572022131457032e-01  1.0952591052960474e+00  1.1898714822956660e+00  1.4111812681232270e+00  5.0914563554407588e-01  8.7149662596782651e-01  1.4054876015057176e+00  1.3662753457166534e+00  1.2967586573780807e+00  5.0629416531654103e-01  7.7221899583583642e-01  6.5688156248286289e-01  4.4497534312784154e-01  1.4847284192346335e+00  1.0529382849823914e+00  1.2542376605642613e+00  1.4257586241639300e+00  1.1140208561358274e+00  1.1740225694317510e+00  1.3382428904991974e+00  1.5361016659411944e-01  1.5041053183625492e+00  1.4846635295059756e+00  1.5168762595907868e+00  1.5087083135959842e+00  1.3882862245081107e+00  1.2925038715549864e+00  3.8282936724937855e-01  1.5150794609144602e+00  1.3268421343454393e+00  1.4052131081775869e+00  8.0875229183426045e-01  6.4789728288644988e-01  1.0016975915083952e+00  4.7762353791511047e-01  6.1945679703400369e-01  6.4982015786500735e-01  1.2522425001915414e+00  5.0447109405508050e-01  1.7431765880577266e-01  1.4825210030010008e+00  1.8519945755639244e-01  1.2718065429043459e+00  1.5159372897697463e+00  9.9368327874050033e-01  9.2871434517652363e-01  1.3268896356149493e+00  1.5062774993120815e+00  9.1219495393143568e-01  1.4796973325177163e+00  1.6579737864368857e-01  3.7967133671486097e-01  2.6635038757941321e-01  9.9374104065294255e-01  9.1860005842027337e-01  1.0356177750436810e+00  1.5425579005611417e-01  8.0056109641122142e-01  1.2098080020711557e+00  3.4312769075757016e-01  1.4611213421452776e+00  1.7894064815509439e-01  4.9314551678140839e-01  7.1314655880508959e-01  6.1636891326009324e-01  4.6825463254918831e-01  1.3769067091577294e+00  1.15405