<?xml version="1.0"?>
<VTKFile type="UnstructuredGrid"  version="0.1"  >
<UnstructuredGrid>
<Piece  NumberOfPoints="2513" NumberOfCells="4852">
<Points>
<DataArray  type="Float64"  NumberOfComponents="3"  format="ascii">-1 1 0  -1 -1 0  1 -1 0  1 1 0  0 -1 0  1 0 0  0 1 0  -1 0 0  0 0 0  -1 -0.5 0  -0.5 -1 0  -0.5 1 0  -1 0.5 0  1 -0.5 0  0.5 -1 0  1 0.5 0  0.5 1 0  0.4166666666666666 -0.4166666666666667 0  -0.4166666666666667 0.4166666666666667 0  -0.25 -0.5 0  0.5 0.25 0  -0.4861111111111112 -0.06944444444444445 0  0.0732758620689655 0.507183908045977 0  -0.625 -0.625 0  0.625 0.625 0  0.7380952380952381 -0.25 0  -0.7099116161616161 0.2105429292929293 0  -0.25 0.7380952380952381 0  0.105392156862745 -0.6348039215686275 0  0.6770833333333334 -0.6770833333333333 0  -0.6770833333333334 0.6770833333333334 0  0.3472222222222222 -0.06944444444444446 0  -0.7264957264957265 -0.3044871794871795 0  0.3141940982507127 0.7297313660835709 0  0.02049587951122483 -0.3227479397556124 0  -0.2690972222222223 0.1475694444444444 0  0.3859500089908372 -0.7274430156831472 0  -0.2228477945123298 -0.1761765495248019 0  0.2182539682539683 0.1884920634920635 0  0.75 0.375 0  -0.145442219440968 -0.7602211097204841 0  0.7088913690476191 0.0427827380952381 0  -0.75 -1 0  -1 -0.75 0  1 0.75 0  0.75 1 0  -0.7439982703698937 -0.04614153195464455 0  -0.4609235096577606 -0.3356498099556895 0  0.4063134471431929 0.4895621842856023 0  0.25 -1 0  -0.25 -1 0  -0.75 1 0  0.75 -1 0  -1 -0.25 0  -1 0.25 0  1 -0.25 0  -0.25 1 0  1 -0.75 0  -1 0.75 0  0.25 1 0  1 0.25 0  -0.4041423272138783 -0.7597141090712928 0  0.06500839607911253 0.7578103030529481 0  -0.1572801182352047 0.3838997021864289 0  -0.6528005242053915 0.4409494757946086 0  -0.4930160984848485 0.1544744318181818 0  -0.4732142857142858 0.7752976190476191 0  0.6398809523809523 -0.4538690476190476 0  0.5166054117396399 -0.2161233620965164 0  -0.002273787244753427 0.2232363985975174 0  0.1500564496765022 -0.1524955293952667 0  0.2016720420046758 -0.4410343282803009 0  -0.08495178036419618 0.6274139771124571 0  -0.8367311471133162 0.3642591720794645 0  -0.8333333333333334 -0.625 0  -0.594323836800685 -0.8231079456002283 0  -0.4466957714776065 -0.5349126855671806 0  0.8125 0.5625 0  0.78125 0.78125 0  0.5091392650016769 0.7947130883338923 0  0.125 -0.8382681931833136 0  -0.8184523809523809 -0.8184523809523809 0  -0.07781530426104531 -0.5819319697006881 0  0.5085055196703295 0.04967610411902112 0  0.2918471072074933 -0.276017202318847 0  0.5120763537765269 -0.5898771553229597 0  0.625 -0.8585349462365591 0  0.8158532234335381 -0.8158532234335381 0  -0.5198088446315396 0.5739411553684605 0  -0.8585349462365591 0.625 0  -0.8150493805516597 0.8156205699829586 0  0.8585349462365591 -0.625 0  -0.2688268348649726 0.5439331383603209 0  0.8242100426758139 -0.4436043596336612 0  0.5833756314287952 0.4479378157143976 0  0.8690476190476191 -0.125 0  -0.125 0.8690476190476191 0  -0.8692745600729823 0.125 0  0.8696725120759167 0.125 0  -0.625 0.8711516477451908 0  0.2339522463269718 0.3879558377955778 0  0.2453709502295031 0.5655822922838026 0  0.1730610651637797 0.02021709580868947 0  0.3245402594056757 -0.5644672020485209 0  -0.7291666666666666 -0.4816595441595442 0  -1 -0.375 0  -0.5811140848639904 -0.2127276307675001 0  0.673332592838314 0.2158348143233718 0  0.375 1 0  -0.5714768890989919 0.2985103444040069 0  -1 -0.125 0  -0.8453692574786325 -0.1875 0  -0.3144549134065865 -0.02408675326008025 0  -0.2898414972096258 -0.3336092734780093 0  -0.1075052092206287 -0.4224330421314983 0  -0.05043970703604117 -0.1652278959397459 0  0.6459672950297897 -0.1113415301525317 0  0.4645210271029513 0.6398480556579343 0  0.3512863754411909 0.0937979496253573 0  -0.6063160985568274 0.03891469652249891 0  -0.3428819444444445 0.8690476190476191 0  0.625 1 0  -0.1602164796159982 0.02697860906625157 0  0.04648110064133829 -0.4808416424239687 0  1 0.875 0  -0.3836102479201657 0.6484936449177356 0  -0.3776011723096096 0.263078478984336 0  -0.6024978259969829 -0.3949628096211138 0  0.125 1 0  0.2010781308272777 0.8456221018461906 0  0.2822509696388829 -0.845902544691141 0  -0.3285533674953515 -0.6289773550938936 0  0.3461306793221754 0.278777492464833 0  0.4737475672408696 -0.8508448959534423 0  0.2384632828836344 -0.7029523187242811 0  -0.004777287059791593 0.3759269695907358 0  -0.8499735021850066 -0.3912320205328522 0  0.1222536293721587 0.2963971539625205 0  -0.3769456520999688 -0.203572526805711 0  -0.2749617205755651 -0.8464290792698902 0  0.004805888512766143 -0.747174355248311 0  -0.125 -1 0  -0.06001061822252458 -0.8724007765244854 0  0.875 0.4375 0  0.854421179608893 0.271342359217786 0  0.875 1 0  -0.1499861095763589 0.2358309656934888 0  0.3381943639137225 0.8663061796405532 0  -0.7853090110442228 0.4998412775277108 0  0.7398165998560814 -0.5535192694951373 0  0.1580042122341573 -0.3100246140259917 0  -0.7291666666666667 -0.7142857142857142 0  -0.375 -1 0  0.6483368386154684 0.8514905990110488 0  -0.1295370103291928 -0.2826118305021242 0  0.07458201853700455 0.1123894386563915 0  0.6146465857036327 -0.3161203659316075 0  0.5551898493894731 -0.740296118159085 0  0.375 -1 0  0.482702798370208 -0.084133350091034 0  0.87890625 0.68359375 0  -0.05917195534525846 0.4971092425697621 0  0.1260710309213975 0.6343750312956699 0  0.8690476190476191 -0.3077066815262848 0  -0.2912010232560567 0.3668168386732139 0  -0.875 1 0  -1 0.875 0  1 -0.875 0  0.875 -1 0  -0.8689564281364567 -0.006189266075306407 0  -0.7449425635110547 0.08458938160051771 0  -0.7150266761936593 -0.1739444581417552 0  -0.5260034831318311 -0.711099823962112 0  -0.4724626808827322 -0.871722230709409 0  0.4734436795977052 0.377714794132168 0  -0.875 -1 0  -1 -0.875 0  0.6927189078571988 0.5156567235715964 0  -0.3742497615796874 -0.4296005251260107 0  -0.1969436423297711 -0.6387157229772615 0  -0.6179496409766825 -0.08933356056510935 0  -0.424405057115988 0.04452428810878029 0  -0.08479048335844169 0.1279607007132633 0  0.003830300099055113 0.8712085230656206 0  0.8748778838820267 -1.379218479898026e-05 0  -0.375 1 0  -0.625 1 0  1 0.125 0  -0.125 1 0  1 -0.375 0  1 -0.125 0  1 -0.625 0  0.625 -1 0  0.125 -1 0  -0.625 -1 0  -1 -0.625 0  -1 0.125 0  -1 0.375 0  -1 0.625 0  1 0.375 0  1 0.625 0  0.6325660748712082 0.3335187599557389 0  -0.06420945895056573 0.7549874027425891 0  -0.8769015540914771 0.2478802253893416 0  0.871875 0.871875 0  -0.6868091492840067 0.3270978624973681 0  -0.5363597469565949 0.412994850055505 0  -0.6803734992638302 0.5574295000651103 0  -0.7076253581162534 -0.8803439094224437 0  -0.8778089002295137 -0.5106896447504627 0  -0.3860184984222981 0.530566778071246 0  0.6109900617121508 0.1128453077697081 0  0.3896945134930274 -0.1915382873255086 0  0.7605656944697778 -0.06822134873122943 0  0.3576151269893478 0.5948388411612135 0  -0.5689902680792265 -0.5143596830118065 0  0.6262446286847614 -0.5735657901943212 0  0.2030558252325225 -0.5625263842513452 0  0.6123273142928579 0.7407533260723429 0  0.4016460890123554 -0.3042863223111857 0  -0.59039693199147 0.7578418819188018 0  0.7276932493917544 -0.3705808024528924 0  0.5222536818742854 -0.4713886230400014 0  -0.5101986527137737 0.8848365765607674 0  0.510560172809238 0.5356013299918891 0  -0.3603569195756083 0.75823710606415 0  0.1967279277813232 0.728226870058472 0  -0.6086880986371127 0.1545624071548516 0  -0.38105366729386 0.1511189987807864 0  -0.2944659463671584 -0.7359061804869591 0  0.5060729154966499 -0.3475227845833823 0  -0.09281616240412746 -0.06197858250969457 0  0.7649739583333334 0.6673177083333334 0  0.7628906249999999 0.890234375 0  -0.2666864184909611 0.2585504071132311 0  0.3635064892129658 0.3878003602709461 0  -0.2339409722222222 0.8901937905844155 0  -0.1718792125974916 -0.8957733325456778 0  0.1001768566329531 0.4023510017391879 0  0.3120260172693757 -0.4540546875576884 0  0.7804062804433681 0.1896628610854537 0  0.4087715451998049 0.187961780041608 0  -0.1584963477271457 0.5451611892421655 0  -0.8926817849258324 0.463022006336401 0  0.2338091473445219 -0.07576267331277289 0  0.08171112182813692 -0.2349087687359925 0  0.04635385178956847 -0.1044635073718474 0  -0.4377391632114205 -0.6448874471423088 0  -0.1907678351227189 0.6480215912813945 0  0.300605946475244 0.4741444604171038 0  -0.2145033720757486 -0.06751709909419711 0  0.6069191921170397 -0.005492331448357812 0  0.0214718770761248 0.6032397936031719 0  0.5476675683364878 0.8992752415326501 0  0.4387475014316537 0.9093708953002239 0  -0.4932997685306436 -0.4381009159993523 0  0.2515197695339056 -0.1791673369138964 0  -0.7291666666666667 -0.6088789682539681 0  -0.9166666666666667 -0.6875 0  0.620579540363709 -0.2122431523583302 0  -0.484950136419973 0.6719440339397442 0  0.2857044415400258 0.0137589173127316 0  -0.8945708364098356 -0.288306105327986 0  0.4043102720140535 0.7842914560451557 0  0.04123256238752064 -0.9026968245801402 0  0.2003676884403109 -0.9091888601740487 0  0.1068775558538842 -0.7373377130403223 0  -0.4804566783514427 -0.1763307203045643 0  0.108286342087769 -0.3993789328997278 0  -0.191883080105361 -0.3640821726430649 0  -0.07025064492006244 0.2984876656890053 0  -0.7039324641409584 0.788312126296613 0  -0.7311286585775438 0.8932502354831682 0  0.5171409396884947 0.1503852691889257 0  0.4229392823658633 -0.003216522184234835 0  -0.5621736087218259 -0.919558629836806 0  -0.626474064879544 -0.7266572613636506 0  0.2446828746617422 0.2867616783302419 0  0.1759429608742923 0.4776611759306416 0  -0.3468240303741654 -0.5260416435617549 0  -0.7465808808425306 0.4069574477998361 0  -0.7819962170660292 0.2802441065650652 0  -0.3742623214119594 -0.8547800509641984 0  0.1014498009713561 0.8506721983266377 0  0.4285217620918213 -0.5230190595570253 0  0.4091738370487775 -0.6256346204225141 0  0.78125 0.46875 0  0.90625 0.53125 0  -0.4791801348852565 0.2553992655702126 0  0.7843318610782772 -0.7086046956885941 0  0.8909728264971901 -0.7355183796514634 0  0.7041908166528879 -0.7830649143180282 0  0.7311821352
[...]
<PointData  Scalars="velocity-2"> 
<DataArray  type="Float64"  Name="velocity-2"  format="ascii">0.0000000000000000e+00  0.0000000000000000e+00  0.0000000000000000e+00  0.0000000000000000e+00  0.0000000000000000e+00  1.5096634992149833e+00  0.0000000000000000e+00  1.5096236577748949e+00  1.5084467390652219e+00  1.1302095005923740e+00  0.0000000000000000e+00  0.0000000000000000e+00  1.1295696505068737e+00  1.1303528213790266e+00  0.0000000000000000e+00  1.1299516455311072e+00  0.0000000000000000e+00  1.2456591939546602e+00  1.2454741401951743e+00  1.1307322580146015e+00  1.4139225945939358e+00  1.5021245696212415e+00  1.1186068376978464e+00  9.1764015999101933e-01  9.1803990595660923e-01  1.4143102924726196e+00  1.4415521643306763e+00  6.8526929644224066e-01  8.9918193642345745e-01  8.1572472566551824e-01  8.1605437816709792e-01  1.5017276177173675e+00  1.3683615266742630e+00  7.0415756917315298e-01  1.3504268134208401e+00  1.4761135262732954e+00  7.0906150292572756e-01  1.4608793469112966e+00  1.4547542625458667e+00  1.2946548796779100e+00  6.3533916699641224e-01  1.5063907485948380e+00  0.0000000000000000e+00  6.5935509110726098e-01  6.5960439512105373e-01  0.0000000000000000e+00  1.5063437349139912e+00  1.3369319403381570e+00  1.1448463077306517e+00  0.0000000000000000e+00  0.0000000000000000e+00  0.0000000000000000e+00  0.0000000000000000e+00  1.4142689307734888e+00  1.4143117357355000e+00  1.4142068371919136e+00  0.0000000000000000e+00  6.5939936325758519e-01  6.5934090402944978e-01  0.0000000000000000e+00  1.4145232954307652e+00  6.3711725334711256e-01  6.4116385511275320e-01  1.2851250135429655e+00  1.2137162289709755e+00  1.4721962657573890e+00  6.0102588892458364e-01  1.1959065404910303e+00  1.4387741179993772e+00  1.4333617276158761e+00  1.4734437659665169e+00  1.2137109066370335e+00  9.1313133409604941e-01  1.3075771215709753e+00  9.1803215769162549e-01  4.8551501973974093e-01  1.0756754147336920e+00  1.0298439276157878e+00  5.8688558343036201e-01  5.5461206347884062e-01  4.4756291443846730e-01  4.9783400719173826e-01  9.9615350846552109e-01  1.5055262971157102e+00  1.3930521713188941e+00  9.8179209397022316e-01  3.9605455428528508e-01  5.0417790172348786e-01  1.0096631403497989e+00  9.1784112722432409e-01  5.0440631444148232e-01  9.1815015181282267e-01  1.0610811626478851e+00  1.2103841249568772e+00  1.2038158369204373e+00  1.4852159951857324e+00  3.6839404392882241e-01  1.4857169434682380e+00  1.4853979419774874e+00  3.6299766461174854e-01  1.2800521284369406e+00  1.0244448238793282e+00  1.5088441039154252e+00  1.0262615643504811e+00  1.1572281260838631e+00  1.2956678737132723e+00  1.4410251502005476e+00  1.4381583492318033e+00  0.0000000000000000e+00  1.3730019134195628e+00  1.4859079256289485e+00  1.4554319175273704e+00  1.5074625370772770e+00  1.3399437013456890e+00  1.2377294871532158e+00  1.4680406512200761e+00  1.4901426716729653e+00  8.8966794611607780e-01  1.4957028653960462e+00  1.5069197886401520e+00  3.6798580274605569e-01  0.0000000000000000e+00  1.5090849649566809e+00  1.1577935258523078e+00  3.5324875731223809e-01  8.7287678430886062e-01  1.4030909183140587e+00  1.2723191219652925e+00  0.0000000000000000e+00  4.2930796261399146e-01  4.2816236087947673e-01  9.1058077302779616e-01  1.3908479030065668e+00  4.1594889652540756e-01  7.6149811178222049e-01  1.2944359995574617e+00  1.2763057639976836e+00  1.3756545444871806e+00  1.4452901056185050e+00  4.2733249906452792e-01  6.6537403399268980e-01  0.0000000000000000e+00  3.5967316852226550e-01  1.2184518638172495e+00  1.3972711857476696e+00  0.0000000000000000e+00  1.4246764072147622e+00  3.7583437448065687e-01  1.1303954815796582e+00  1.0443819053609273e+00  1.3628779828720583e+00  7.3788543527962602e-01  0.0000000000000000e+00  4.1329968636636816e-01  1.3876277117942792e+00  1.4898811363980839e+00  1.3573518350775347e+00  6.8051915690693776e-01  0.0000000000000000e+00  1.4981611362790688e+00  8.0260972578687428e-01  1.1343967601839453e+00  8.9999253765770859e-01  1.3650991753588884e+00  1.3045055111441430e+00  0.0000000000000000e+00  3.5380097343001005e-01  3.5327433037927536e-01  0.0000000000000000e+00  1.5092878864638863e+00  1.4974437469574655e+00  1.4627018355523984e+00  7.4391796192566706e-01  3.6166876147380539e-01  1.2911477821884443e+00  0.0000000000000000e+00  3.5335872678644892e-01  1.1061140036377686e+00  1.2288770536757445e+00  8.9189207044662910e-01  1.4972177805880282e+00  1.5058559046164706e+00  1.4840709107042178e+00  3.6361752488323801e-01  1.5091392557781982e+00  0.0000000000000000e+00  0.0000000000000000e+00  1.4860406015047178e+00  0.0000000000000000e+00  1.2955554624328414e+00  1.4859052396912817e+00  9.1788904179783770e-01  0.0000000000000000e+00  0.0000000000000000e+00  0.0000000000000000e+00  9.1803845049272326e-01  1.4856537587753884e+00  1.2954197848972711e+00  9.1839566098044623e-01  1.2958068418650688e+00  9.1814382226021052e-01  1.3399365250517616e+00  6.4763779743907435e-01  1.4159227028416406e+00  3.6066929802166509e-01  1.3464263500890588e+00  1.2500015069011916e+00  1.0382380956169552e+00  3.3977005456709863e-01  1.1137004940764617e+00  1.0820074341619947e+00  1.4897081932683025e+00  1.4534989923135067e+00  1.5021028241844225e+00  9.7287985562286272e-01  1.1079979647966369e+00  1.0103774821077414e+00  1.0293568910635471e+00  6.7985058483507610e-01  1.3683125255327868e+00  6.4125807905363519e-01  1.2999302616103736e+00  1.1723777271483526e+00  3.2738171444691599e-01  1.0739935986786093e+00  6.4075766445663751e-01  7.0778126681230202e-01  1.4724345289028791e+00  1.4743570350623592e+00  6.9054558038816871e-01  1.3254839913008682e+00  1.5037374366123295e+00  8.3561623678250840e-01  3.1228696500228181e-01  1.4069991786987968e+00  1.2804951962358486e+00  3.1247989364750223e-01  2.9697135878084369e-01  1.2629633544586343e+00  1.1956740584546410e+00  1.4539358025725553e+00  1.4551270020490041e+00  1.0587471003205067e+00  1.1834210696268397e+00  1.5004996681760658e+00  1.4254608799548132e+00  1.4926604885512991e+00  8.8052229267135707e-01  8.7354701795701040e-01  1.1672695847425114e+00  1.5016580553609558e+00  1.5098783456621774e+00  9.5809199669630574e-01  2.8853206921432867e-01  2.6075081626431262e-01  1.2177118845381680e+00  1.4597298242892580e+00  9.4821431048840421e-01  7.9421672816760835e-01  1.4404497161719403e+00  8.2637447802668118e-01  1.5088416627088110e+00  1.3826428966428757e+00  5.8012604594877226e-01  2.7828705038338514e-01  2.6056816031890867e-01  6.8698427769474180e-01  1.4616610273858222e+00  1.2662175694360847e+00  1.3076526900380161e+00  1.3734798423697254e+00  5.7029855609478419e-01  3.0453534195406717e-01  1.4747425472298701e+00  1.5091046463966682e+00  2.3241343767172370e-01  7.1127361084463814e-01  1.3837003798033918e+00  1.1628003828659861e+00  1.0895693868145180e+00  1.2576425641964069e+00  1.3891183071325519e+00  4.0530165827780046e-01  4.1628054293954836e-01  1.0946763171229794e+00  9.1649308315403766e-01  1.1765646671860306e+00  1.0815922816686234e+00  1.4097868391420432e+00  7.5055968678260521e-01  6.9128429304779548e-01  5.8240779607914750e-01  3.1127642878315898e-01  5.1178425310267150e-01  7.4039471422925540e-01  7.5080441025665023e-01  1.2020590170777539e+00  2.4449218872138465e-01  3.3009641796772898e-01  5.7978339221837161e-01  7.2162259636377812e-01  2.4955450271149829e-01  3.0643268817804881e-01  8.7148278541157931e-01  8.6726410226355244e-01  4.7958589597913159e-01  8.0084324690750230e-01  1.0025938336828899e+00  1.0546815020790867e+00  9.7546014018046368e-01  1.4588758191195026e+00  1.4486112154311321e+00  1.4933235035586250e+00  1.1963377694830222e+00  1.0447813732098843e+00  2.0556989409426593e-01  1.0924939099538877e+00  1.2715148867273156e+00  5.9503006226989108e-01  9.3690328694022329e-01  1.1405192923360179e+00  1.1045523116281160e+00  1.3168612812869065e+00  1.3900549165011233e+00  1.5017278718393137e+00  8.5341721694243555e-01  1.4951306937190481e+00  5.9578717496764921e-01  7.8044565426591417e-01  1.4871365922512667e+00  1.3725947706478547e+00  1.1849620293135188e+00  1.9957211762415719e-01  1.4689915858096732e+00  1.4959135779797534e+00  1.4381306122050306e+00  1.2184402296640073e+00  1.5081299192503674e+00  1.2444584116871540e+00  1.0724995408012279e+00  8.5733972785619494e-01  1.9042090942757037e-01  1.4676006696225588e+00  1.5036583775603636e+00  1.5038878219707663e+00  1.4567513542460173e+00  1.4763937849451043e+00  1.9609120763746898e-01  7.5703316755544181e-01  1.9267613277322218e-01  1.3606833906448077e+00  1.9078139835963648e-01  8.7795083916563743e-01  1.5036120073093340e+00  1.8587748325500281e-01  1.2751656692497548e+00  1.0581053456541252e+00  1.0579193412794037e+00  5.0926840281434438e-01  1.3604662309690732e+00  1.5032840917003403e+00  1.5035462944232914e+00  1.5033034072725171e+00  1.8259700969998505e-01  2.3282991916721832e-01  1.9102576351155187e-01  1.4816817135549798e+00  1.4400165781506442e+00  1.0606985577686561e+00  6.0093634588447387e-01  1.8368736037523820e-01  8.1286441990663660e-01  1.3012131602652290e+00  7.8463835763552980e-01  1.5079916337917427e+00  1.4587505975860202e+00  5.5922713774629329e-01  6.9369987423745305e-01  1.5074607534763291e+00  1.4838841886990433e+00  1.3266929106513543e+00  1.4215599971317092e+00  1.8997811672358150e-01  1.4056024727991190e+00  1.2396948252020503e+00  1.3295495716795518e+00  1.3987432332083509e+00  1.2733065931833436e+00  1.4923415954008348e+00  1.4238881315010274e+00  8.4637464523998751e-01  5.5187730682095126e-01  1.3993189242142146e+00  1.4293473605575406e+00  9.8251987477365343e-01  1.3143721331990903e+00  9.7884841384302212e-01  1.4414780358579815e+00  1.4772816390225125e+00  1.4608623248329493e+00  1.3472711819531187e+00  1.5073567592583921e+00  7.6903192565592893e-01  2.8466164813204786e-01  1.3477697452651067e+00  4.1656143959074776e-01  1.3436748341828104e+00  1.1398026584294443e+00  1.2545994512243177e+00  1.3323004321415588e+00  1.0455337506018136e+00  1.4368065755358026e+00  1.4075186036325655e+00  1.2989469830954650e+00  1.1749831947993314e+00  1.4850292576483692e+00  0.0000000000000000e+00  1.5067911164189718e+00  1.4979698622405553e+00  1.2062582261494308e+00  1.1950710005350813e+00  5.7827549425090941e-01  1.5090475175696716e+00  1.4944444634788527e+00  8.9832845571421927e-01  1.1804103575938276e+00  1.3488925095318245e+00  9.4216285338551808e-01  1.0258163139640193e+00  0.0000000000000000e+00  1.4131674281793103e+00  1.8421599765509059e-01  5.3133813494507653e-01  1.4864549108410647e+00  4.7213331109607554e-01  2.3237252751710480e-01  9.0023502509104614e-01  1.2578417323681532e+00  1.3262900303984040e+00  2.1087825198133633e-01  1.0442487407402088e+00  4.7592444627313862e-01  6.0931192165484194e-01  1.2819440675437734e+00  1.4441426839964544e+00  6.0785503638156313e-01  1.4448964998424494e+00  1.8364292304903251e-01  1.4030775414796230e+00  1.3304141311094451e+00  5.8769377677549073e-01  9.5741496563427364e-01  8.4164139740647381e-01  1.4836721416511800e+00  5.6921814754471711e-01  5.9180229759109626e-01  9.5485729304841194e-01  0.0000000000000000e+00  1.3580685420788638e+00  0.0000000000000000e+00  9.8746625762478779e-01  1.2615333847427923e+00  1.3109106460875815e+00  1.1060038813496642e+00  1.5090948614880424e+00  1.4949534021391424e+00  1.4301148806977202e+00  1.2128123858330375e+00  1.3720591798643191e+00  0.0000000000000000e+00  2.1327885483187869e-01  9.1748961372036897e-01  1.8227758788789364e-01  7.3165743425455121e-01  1.1806976198848620e+00  4.0612464272987525e-01  1.0213668617591631e+00  7.9157587215816061e-01  6.3680095111394941e-01  3.1604266919481283e-01  0.0000000000000000e+00  4.7007020435587304e-01  4.7571666845041122e-01  5.0797631543847410e-01  1.5059479503499831e+00  0.0000000000000000e+00  9.8849704741623223e-01  7.9851195637327532e-01  1.5074557973555196e+00  1.3626333193771063e+00  1.4553158490794602e+00  1.4327312539621806e+00  1.3610051578471321e+00  1.4487360563889891e+00  1.5083628202203465e+00  6.8603048637383557e-01  1.0908939674003806e+00  8.4892176824961896e-01  1.1166634576191126e+00  1.4880428222592870e+00  1.4950643669862242e+00  0.0000000000000000e+00  9.8315681199029237e-01  2.0879641757753650e-01  2.5434099958563278e-01  1.1686984106028300e+00  1.2238480283092783e+00  1.4195101187419898e+00  2.3893777830117943e-01  7.4249120820691961e-01  1.4611003923856307e+00  1.3119820015768890e+00  1.4163120452849838e+00  1.1714870090453378e+00  1.4704795135188842e+00  1.5006535389786948e+00  1.2181100168487280e+00  1.8719158741970401e-01  2.0105606981832788e-01  2.0549339887051293e-01  1.4423745842489375e+00  5.4492114219176990e-01  1.2973557734699146e+00  1.4888708655462957e+00  1.4654045069847668e+00  1.4293437114419878e+00  9.1980402209896484e-01  1.1127349340763180e+00  4.5747584713197820e-01  1.9453818842961298e-01  1.4728479985890019e+00  1.2188322545592019e+00  1.2885572284487903e+00  1.4052166269588959e+00  1.4005310380927467e+00  1.3950948411927719e+00  1.1756117995321909e+00  1.1304658383328154e+00  1.2832739227971235e+00  1.8364144285112657e-01  0.0000000000000000e+00  1.1392372129154849e+00  1.4883320553358459e+00  1.4921851243904307e+00  1.4434448964298761e+00  5.4568827855640323e-01  2.0573146064078493e-01  1.5090218257325896e+00  6.9797521949248742e-01  7.3007054617968492e-01  1.2928850487292858e+00  1.3416994560798094e+00  6.6054699781453030e-01  5.3396734972118376e-01  7.9831798100873130e-01  8.3471290231675332e-01  1.4977327881373383e+00  6.2210137268611532e-01  8.2014338105596585e-01  8.3091546222366253e-01  1.3707832797980470e+00  9.6512206042224336e-01  9.8859214324585021e-01  1.4088611793786388e+00  1.3610021770760992e+00  7.5103790641337864e-01  1.1843295308521262e+00  3.7502067479153217e-01  1.1237229293976532e+00  1.4600507289760496e+00  1.9624188741650167e-01  4.4246684277482090e-01  1.5069052836745571e+00  4.6740861723835192e-01  5.6761381592455162e-01  4.4746993524099266e-01  8.8180034144462949e-01  1.3344933372849543e+00  1.5094522208985626e+00  5.5130805504498448e-01  1.3886221333866069e+00  1.4340037025308170e+00  1.0889641453041359e+00  1.0803437766158357e+00  6.3271934237221616e-01  1.0367593214518267e+00  1.0303021450417722e+00  1.4151794955549337e+00  1.4453341456623425e+00  1.2559222308002498e+00  1.5087304064285736e+00  9.0080072221488106e-01  1.4848061759198581e+00  1.3886360588801070e+00  4.6894263558349425e-01  1.3269476743089088e+00  7.7740960705752260e-01  1.4984245684417450e+00  8.4115116030137116e-01  1.9366145709494398e-01  3.9765415691578565e-01  5.1847378159634461e-01  6.6840576255029005e-01  1.4832686739056249e+00  1.4558384617494928e+00  1.4763538050673370e+00  1.0128910967527667e+00  1.4018586080654176e+00  1.3605452768759758e+00  1.2367871241219821e+00  1.2722908920074285e+00  1.5030298264175699e+00  0.0000000000000000e+00  1.0850808500018085e+00  9.5828915544388360e-01  7.3967204023239042e-01  6.1998653207781917e-01  8.8111200305067927e-01  7.7155457829634844e-01  1.5081212632590253e+00  5.7444437244550084e-01  1.3252625012065988e+00  9.2793685419131688e-01  1.0058387482617033e+00  1.1657248276717778e+00  0.0000000000000000e+00  5.1202391654154478e-01  4.8573399580642657e-01  7.9475440106248596e-01  7.3955750188850200e-01  7.8765552905700953e-01  1.2654192315263417e+00  1.1759179748383286e+00  1.3641493915866767e+00  1.4054704627274996e+00  7.7492124811610930e-01  0.0000000000000000e+00  1.8465147810064902e-01  4.3301749186146604e-01  1.4895021367205268e+00  5.5221283201696902e-01  1.0577454579914896e+00  1.4646586129446750e+00  1.4993384872824769e+00  7.5732565998058543e-01  1.1222860706382702e+00  8.3921626134208316e-01  2.9312748953543344e-01  1.4300540034584392e+00  1.3440871136565007e+00  1.5037065001118912e+00  1.5086890756415405e+00  2.5566580768966435e-01  7.9598501958504408e-01  1.9338339264215101e-01  1.5096643828634282e+00  2.5026161044385037e-01  1.4132159903046948e+00  1.0298431105917278e+00  7.9466720592609275e-01  0.0000000000000000e+00  0.0000000000000000e+00  0.0000000000000000e+00  1.8259330838316759e-01  0.0000000000000000e+00  0.0000000000000000e+00  1.3610764909479900e+00  5.1248777119194278e-01  0.0000000000000000e+00  0.0000000000000000e+00  1.3608233313523714e+00  0.0000000000000000e+00  0.0000000000000000e+00  1.5034290736061948e+00  1.5031664964548894e+00  1.4558296624255858e+00  1.4558227709037932e+00  1.5034459652576799e+00  1.5036483264740399e+00  0.0000000000000000e+00  1.2188190650981252e+00  0.0000000000000000e+00  0.0000000000000000e+00  1.0296104878722763e+00  0.0000000000000000e+00  0.0000000000000000e+00  5.1198766483929725e-01  0.0000000000000000e+00  0.0000000000000000e+00  7.9459967125892161e-01  0.0000000000000000e+00  5.1209592186294484e-01  1.8362030775248231e-01  0.0000000000000000e+00  1.4560252971276102e+00  0.0000000000000000e+00  1.0300343126272185e+00  0.0000000000000000e+00  1.2186624353102862e+00  7.9447764928975684e-01  1.1113917291380275e+00  1.2548722656521771e+00  4.3400253371742548e-01  1.1309364952253609e+00  1.1129853947561710e+00  1.2797444080677480e+00  1.2789255186811552e+00  1.2053313866765509e+00  1.0503138286783107e+00  1.0257533007822424e+00  1.2542365445476160e+00  1.5839176793851828e-01  1.0830599271251580e+00  9.3093133789160110e-01  1.1916274641275453e+00  1.4559406642114472e+00  1.3715065343645607e+00  1.4176978589020335e+00  1.5023680966033697e+00  1.5994437714071330e-01  1.0181207838702759e+00  1.2023645228590527e+00  1.4914060394356052e+00  1.5094013546719411e+00  1.2778284434918712e+00  1.5019709253119136e+00  1.4844160662935679e+00  1.4321869176090021e+00  1.2683507750723255e+00  1.5034359037592826e+00  1.4220810976459271e+00  1.1133592223533380e+00  1.4723607368070164e+00  1.4978941610012049e+00  8.0379390054865485e-01  1.4613198552747975e+00  1.3951706841643878e+00  1.2493882721767309e+00  1.3648013112819661e+00  1.4791753218622354e+00  1.1620770700718268e+00  9.8384611531508104e-01  1.5038984439866985e+00  9.7225248050135304e-01  1.3303261824274693e+00  1.3670859455467175e+00  1.4924377527514543e+00  7.6157361049202954e-01  1.4710606333101137e+00  1.4948271876282799e+00  1.5051879175123821e+00  1.4859766026421861e+00  1.2278461464408126e+00  1.3231855577658120e+00  1.2271482435717631e+00  1.0814243709271203e+00  1.1301065387072775e+00  4.5572369664277673e-01  1.2880164308940938e+00  1.2252242360687409e+00  1.4005372637923061e+00  4.6131728044045056e-01  3.5194019705836704e-01  1.0855544289343972e+00  1.1799771756066835e+00  1.4018442175992114e+00  5.0372927556926461e-01  8.6285315417485686e-01  1.3960968490744794e+00  1.3566780432773486e+00  1.2868857297783562e+00  5.0089963327835607e-01  7.6433090152229732e-01  6.4995238121815890e-01  4.4021775493984472e-01  1.4758257580506511e+00  1.0433669556494243e+00  1.2443699638080095e+00  1.4165157528781873e+00  1.1041967932917867e+00  1.1640991281093487e+00  1.3285647341174835e+00  1.5204221164873333e-01  1.4954684163657450e+00  1.4757549070238318e+00  1.5083330779374375e+00  1.5001879898089276e+00  1.3788686114483772e+00  1.2826551117204281e+00  3.7879702137245358e-01  1.5063950995606035e+00  1.3171174948708371e+00  1.3958221233790817e+00  8.0056133642762117e-01  6.4106879594934030e-01  9.9232489264318724e-01  4.7252740425044149e-01  6.1289941673371440e-01  6.4296243241980822e-01  1.2423607438347219e+00  4.9911393354468836e-01  1.7249689881641070e-01  1.4737523253177940e+00  1.8326744610359250e-01  1.2619209847685118e+00  1.5073640864095512e+00  9.8432404464552337e-01  9.1970732674524291e-01  1.3171448406542028e+00  1.4975825621270196e+00  9.0333281021342071e-01  1.4709129327863484e+00  1.6407058900451352e-01  3.7560280288850578e-01  2.6354879391453212e-01  9.8439563030681732e-01  9.0960916310861073e-01  1.0261280734299980e+00  1.5265993052938087e-01  7.9239556316374360e-01  1.1999449048292332e+00  3.3953041306438531e-01  1.4520663928553095e+00  1.7708196456213371e-01  4.8787624849910566e-01  7.0571677649480824e-01  6.0983967147199059e-01  4.6323118141305103e-01  1.3674016924000487e+00  1.14412