<?xml version="1.0"?>
<VTKFile type="UnstructuredGrid"  version="0.1"  >
<UnstructuredGrid>
<Piece  NumberOfPoints="2513" NumberOfCells="4852">
<Points>
<DataArray  type="Float64"  NumberOfComponents="3"  format="ascii">-1 1 0  -1 -1 0  1 -1 0  1 1 0  0 -1 0  1 0 0  0 1 0  -1 0 0  0 0 0  -1 -0.5 0  -0.5 -1 0  -0.5 1 0  -1 0.5 0  1 -0.5 0  0.5 -1 0  1 0.5 0  0.5 1 0  0.4166666666666666 -0.4166666666666667 0  -0.4166666666666667 0.4166666666666667 0  -0.25 -0.5 0  0.5 0.25 0  -0.4861111111111112 -0.06944444444444445 0  0.0732758620689655 0.507183908045977 0  -0.625 -0.625 0  0.625 0.625 0  0.7380952380952381 -0.25 0  -0.7099116161616161 0.2105429292929293 0  -0.25 0.7380952380952381 0  0.105392156862745 -0.6348039215686275 0  0.6770833333333334 -0.6770833333333333 0  -0.6770833333333334 0.6770833333333334 0  0.3472222222222222 -0.06944444444444446 0  -0.7264957264957265 -0.3044871794871795 0  0.3141940982507127 0.7297313660835709 0  0.02049587951122483 -0.3227479397556124 0  -0.2690972222222223 0.1475694444444444 0  0.3859500089908372 -0.7274430156831472 0  -0.2228477945123298 -0.1761765495248019 0  0.2182539682539683 0.1884920634920635 0  0.75 0.375 0  -0.145442219440968 -0.7602211097204841 0  0.7088913690476191 0.0427827380952381 0  -0.75 -1 0  -1 -0.75 0  1 0.75 0  0.75 1 0  -0.7439982703698937 -0.04614153195464455 0  -0.4609235096577606 -0.3356498099556895 0  0.4063134471431929 0.4895621842856023 0  0.25 -1 0  -0.25 -1 0  -0.75 1 0  0.75 -1 0  -1 -0.25 0  -1 0.25 0  1 -0.25 0  -0.25 1 0  1 -0.75 0  -1 0.75 0  0.25 1 0  1 0.25 0  -0.4041423272138783 -0.7597141090712928 0  0.06500839607911253 0.7578103030529481 0  -0.1572801182352047 0.3838997021864289 0  -0.6528005242053915 0.4409494757946086 0  -0.4930160984848485 0.1544744318181818 0  -0.4732142857142858 0.7752976190476191 0  0.6398809523809523 -0.4538690476190476 0  0.5166054117396399 -0.2161233620965164 0  -0.002273787244753427 0.2232363985975174 0  0.1500564496765022 -0.1524955293952667 0  0.2016720420046758 -0.4410343282803009 0  -0.08495178036419618 0.6274139771124571 0  -0.8367311471133162 0.3642591720794645 0  -0.8333333333333334 -0.625 0  -0.594323836800685 -0.8231079456002283 0  -0.4466957714776065 -0.5349126855671806 0  0.8125 0.5625 0  0.78125 0.78125 0  0.5091392650016769 0.7947130883338923 0  0.125 -0.8382681931833136 0  -0.8184523809523809 -0.8184523809523809 0  -0.07781530426104531 -0.5819319697006881 0  0.5085055196703295 0.04967610411902112 0  0.2918471072074933 -0.276017202318847 0  0.5120763537765269 -0.5898771553229597 0  0.625 -0.8585349462365591 0  0.8158532234335381 -0.8158532234335381 0  -0.5198088446315396 0.5739411553684605 0  -0.8585349462365591 0.625 0  -0.8150493805516597 0.8156205699829586 0  0.8585349462365591 -0.625 0  -0.2688268348649726 0.5439331383603209 0  0.8242100426758139 -0.4436043596336612 0  0.5833756314287952 0.4479378157143976 0  0.8690476190476191 -0.125 0  -0.125 0.8690476190476191 0  -0.8692745600729823 0.125 0  0.8696725120759167 0.125 0  -0.625 0.8711516477451908 0  0.2339522463269718 0.3879558377955778 0  0.2453709502295031 0.5655822922838026 0  0.1730610651637797 0.02021709580868947 0  0.3245402594056757 -0.5644672020485209 0  -0.7291666666666666 -0.4816595441595442 0  -1 -0.375 0  -0.5811140848639904 -0.2127276307675001 0  0.673332592838314 0.2158348143233718 0  0.375 1 0  -0.5714768890989919 0.2985103444040069 0  -1 -0.125 0  -0.8453692574786325 -0.1875 0  -0.3144549134065865 -0.02408675326008025 0  -0.2898414972096258 -0.3336092734780093 0  -0.1075052092206287 -0.4224330421314983 0  -0.05043970703604117 -0.1652278959397459 0  0.6459672950297897 -0.1113415301525317 0  0.4645210271029513 0.6398480556579343 0  0.3512863754411909 0.0937979496253573 0  -0.6063160985568274 0.03891469652249891 0  -0.3428819444444445 0.8690476190476191 0  0.625 1 0  -0.1602164796159982 0.02697860906625157 0  0.04648110064133829 -0.4808416424239687 0  1 0.875 0  -0.3836102479201657 0.6484936449177356 0  -0.3776011723096096 0.263078478984336 0  -0.6024978259969829 -0.3949628096211138 0  0.125 1 0  0.2010781308272777 0.8456221018461906 0  0.2822509696388829 -0.845902544691141 0  -0.3285533674953515 -0.6289773550938936 0  0.3461306793221754 0.278777492464833 0  0.4737475672408696 -0.8508448959534423 0  0.2384632828836344 -0.7029523187242811 0  -0.004777287059791593 0.3759269695907358 0  -0.8499735021850066 -0.3912320205328522 0  0.1222536293721587 0.2963971539625205 0  -0.3769456520999688 -0.203572526805711 0  -0.2749617205755651 -0.8464290792698902 0  0.004805888512766143 -0.747174355248311 0  -0.125 -1 0  -0.06001061822252458 -0.8724007765244854 0  0.875 0.4375 0  0.854421179608893 0.271342359217786 0  0.875 1 0  -0.1499861095763589 0.2358309656934888 0  0.3381943639137225 0.8663061796405532 0  -0.7853090110442228 0.4998412775277108 0  0.7398165998560814 -0.5535192694951373 0  0.1580042122341573 -0.3100246140259917 0  -0.7291666666666667 -0.7142857142857142 0  -0.375 -1 0  0.6483368386154684 0.8514905990110488 0  -0.1295370103291928 -0.2826118305021242 0  0.07458201853700455 0.1123894386563915 0  0.6146465857036327 -0.3161203659316075 0  0.5551898493894731 -0.740296118159085 0  0.375 -1 0  0.482702798370208 -0.084133350091034 0  0.87890625 0.68359375 0  -0.05917195534525846 0.4971092425697621 0  0.1260710309213975 0.6343750312956699 0  0.8690476190476191 -0.3077066815262848 0  -0.2912010232560567 0.3668168386732139 0  -0.875 1 0  -1 0.875 0  1 -0.875 0  0.875 -1 0  -0.8689564281364567 -0.006189266075306407 0  -0.7449425635110547 0.08458938160051771 0  -0.7150266761936593 -0.1739444581417552 0  -0.5260034831318311 -0.711099823962112 0  -0.4724626808827322 -0.871722230709409 0  0.4734436795977052 0.377714794132168 0  -0.875 -1 0  -1 -0.875 0  0.6927189078571988 0.5156567235715964 0  -0.3742497615796874 -0.4296005251260107 0  -0.1969436423297711 -0.6387157229772615 0  -0.6179496409766825 -0.08933356056510935 0  -0.424405057115988 0.04452428810878029 0  -0.08479048335844169 0.1279607007132633 0  0.003830300099055113 0.8712085230656206 0  0.8748778838820267 -1.379218479898026e-05 0  -0.375 1 0  -0.625 1 0  1 0.125 0  -0.125 1 0  1 -0.375 0  1 -0.125 0  1 -0.625 0  0.625 -1 0  0.125 -1 0  -0.625 -1 0  -1 -0.625 0  -1 0.125 0  -1 0.375 0  -1 0.625 0  1 0.375 0  1 0.625 0  0.6325660748712082 0.3335187599557389 0  -0.06420945895056573 0.7549874027425891 0  -0.8769015540914771 0.2478802253893416 0  0.871875 0.871875 0  -0.6868091492840067 0.3270978624973681 0  -0.5363597469565949 0.412994850055505 0  -0.6803734992638302 0.5574295000651103 0  -0.7076253581162534 -0.8803439094224437 0  -0.8778089002295137 -0.5106896447504627 0  -0.3860184984222981 0.530566778071246 0  0.6109900617121508 0.1128453077697081 0  0.3896945134930274 -0.1915382873255086 0  0.7605656944697778 -0.06822134873122943 0  0.3576151269893478 0.5948388411612135 0  -0.5689902680792265 -0.5143596830118065 0  0.6262446286847614 -0.5735657901943212 0  0.2030558252325225 -0.5625263842513452 0  0.6123273142928579 0.7407533260723429 0  0.4016460890123554 -0.3042863223111857 0  -0.59039693199147 0.7578418819188018 0  0.7276932493917544 -0.3705808024528924 0  0.5222536818742854 -0.4713886230400014 0  -0.5101986527137737 0.8848365765607674 0  0.510560172809238 0.5356013299918891 0  -0.3603569195756083 0.75823710606415 0  0.1967279277813232 0.728226870058472 0  -0.6086880986371127 0.1545624071548516 0  -0.38105366729386 0.1511189987807864 0  -0.2944659463671584 -0.7359061804869591 0  0.5060729154966499 -0.3475227845833823 0  -0.09281616240412746 -0.06197858250969457 0  0.7649739583333334 0.6673177083333334 0  0.7628906249999999 0.890234375 0  -0.2666864184909611 0.2585504071132311 0  0.3635064892129658 0.3878003602709461 0  -0.2339409722222222 0.8901937905844155 0  -0.1718792125974916 -0.8957733325456778 0  0.1001768566329531 0.4023510017391879 0  0.3120260172693757 -0.4540546875576884 0  0.7804062804433681 0.1896628610854537 0  0.4087715451998049 0.187961780041608 0  -0.1584963477271457 0.5451611892421655 0  -0.8926817849258324 0.463022006336401 0  0.2338091473445219 -0.07576267331277289 0  0.08171112182813692 -0.2349087687359925 0  0.04635385178956847 -0.1044635073718474 0  -0.4377391632114205 -0.6448874471423088 0  -0.1907678351227189 0.6480215912813945 0  0.300605946475244 0.4741444604171038 0  -0.2145033720757486 -0.06751709909419711 0  0.6069191921170397 -0.005492331448357812 0  0.0214718770761248 0.6032397936031719 0  0.5476675683364878 0.8992752415326501 0  0.4387475014316537 0.9093708953002239 0  -0.4932997685306436 -0.4381009159993523 0  0.2515197695339056 -0.1791673369138964 0  -0.7291666666666667 -0.6088789682539681 0  -0.9166666666666667 -0.6875 0  0.620579540363709 -0.2122431523583302 0  -0.484950136419973 0.6719440339397442 0  0.2857044415400258 0.0137589173127316 0  -0.8945708364098356 -0.288306105327986 0  0.4043102720140535 0.7842914560451557 0  0.04123256238752064 -0.9026968245801402 0  0.2003676884403109 -0.9091888601740487 0  0.1068775558538842 -0.7373377130403223 0  -0.4804566783514427 -0.1763307203045643 0  0.108286342087769 -0.3993789328997278 0  -0.191883080105361 -0.3640821726430649 0  -0.07025064492006244 0.2984876656890053 0  -0.7039324641409584 0.788312126296613 0  -0.7311286585775438 0.8932502354831682 0  0.5171409396884947 0.1503852691889257 0  0.4229392823658633 -0.003216522184234835 0  -0.5621736087218259 -0.919558629836806 0  -0.626474064879544 -0.7266572613636506 0  0.2446828746617422 0.2867616783302419 0  0.1759429608742923 0.4776611759306416 0  -0.3468240303741654 -0.5260416435617549 0  -0.7465808808425306 0.4069574477998361 0  -0.7819962170660292 0.2802441065650652 0  -0.3742623214119594 -0.8547800509641984 0  0.1014498009713561 0.8506721983266377 0  0.4285217620918213 -0.5230190595570253 0  0.4091738370487775 -0.6256346204225141 0  0.78125 0.46875 0  0.90625 0.53125 0  -0.4791801348852565 0.2553992655702126 0  0.7843318610782772 -0.7086046956885941 0  0.8909728264971901 -0.7355183796514634 0  0.7041908166528879 -0.7830649143180282 0  0.7311821352
[...]
<PointData  Scalars="velocity-2"> 
<DataArray  type="Float64"  Name="velocity-2"  format="ascii">0.0000000000000000e+00  0.0000000000000000e+00  0.0000000000000000e+00  0.0000000000000000e+00  0.0000000000000000e+00  1.4954680877317259e+00  0.0000000000000000e+00  1.4954231866008152e+00  1.4942658164390537e+00  1.1211909590795393e+00  0.0000000000000000e+00  0.0000000000000000e+00  1.1205588267517248e+00  1.1213379976312543e+00  0.0000000000000000e+00  1.1209370167121315e+00  0.0000000000000000e+00  1.2354512633612711e+00  1.2352362296034822e+00  1.1217482048046989e+00  1.4013572653208217e+00  1.4880789134837482e+00  1.1097264979325889e+00  9.1051096790144259e-01  9.1085059435822879e-01  1.4017329939407717e+00  1.4284838485300824e+00  6.8014015383685933e-01  8.9219613467504688e-01  8.0946321058990289e-01  8.0980639177526914e-01  1.4876452887096618e+00  1.3565276677579450e+00  6.9885871085053153e-01  1.3388485691680914e+00  1.4624937339656037e+00  7.0371093959945530e-01  1.4474784825897997e+00  1.4414789820479230e+00  1.2838240958760736e+00  6.3060786873158436e-01  1.4922368710481273e+00  0.0000000000000000e+00  6.5442984763347667e-01  6.5467599674624399e-01  0.0000000000000000e+00  1.4921690931316878e+00  1.3255057273483306e+00  1.1356971416727961e+00  0.0000000000000000e+00  0.0000000000000000e+00  0.0000000000000000e+00  0.0000000000000000e+00  1.4016858445777991e+00  1.4017354563800264e+00  1.4016286282587458e+00  0.0000000000000000e+00  6.5447279066704034e-01  6.5441540878135784e-01  0.0000000000000000e+00  1.4019390451109912e+00  6.3240103298209682e-01  6.3639763621608381e-01  1.2744158413446667e+00  1.2038429408876017e+00  1.4586630443049753e+00  5.9657189797204246e-01  1.1862087639554584e+00  1.4257520012273543e+00  1.4204848240886265e+00  1.4598559360614383e+00  1.2038548716351167e+00  9.0605426137218004e-01  1.2965950701232336e+00  9.1090357911699582e-01  4.8201782025486500e-01  1.0671631256934044e+00  1.0217344020261820e+00  5.8254604884109740e-01  5.5054415812113189e-01  4.4434635864166311e-01  4.9423733722120039e-01  9.8836794403580908e-01  1.4913690154270176e+00  1.3808184474264125e+00  9.7410202637825993e-01  3.9323176830197276e-01  5.0052722444056108e-01  1.0017265734640590e+00  9.1071247496868513e-01  5.0074017237930346e-01  9.1103008867117097e-01  1.0526946900072691e+00  1.2005222488970131e+00  1.1940679250124742e+00  1.4714493965027700e+00  3.6581749207276920e-01  1.4719293978045869e+00  1.4716268563059527e+00  3.6041393982385056e-01  1.2694255853896352e+00  1.0163688890316689e+00  1.4946479697592543e+00  1.0181783827386581e+00  1.1479671224387824e+00  1.2848300783689584e+00  1.4280300992858237e+00  1.4251708831465355e+00  0.0000000000000000e+00  1.3610487641434124e+00  1.4721263396829956e+00  1.4421844095411158e+00  1.4933282695474224e+00  1.3285112598058244e+00  1.2276063366862293e+00  1.4545248508966289e+00  1.4762559015099184e+00  8.8276401321888698e-01  1.4817698348484822e+00  1.4927516335159547e+00  3.6538299665188123e-01  0.0000000000000000e+00  1.4949055480276334e+00  1.1485248052120465e+00  3.5077006029658830e-01  8.6613849776280027e-01  1.3906695114642655e+00  1.2617729090904983e+00  0.0000000000000000e+00  4.2624329637601638e-01  4.2509407949698497e-01  9.0352231703569852e-01  1.3786527635115500e+00  4.1298710159897867e-01  7.5566420681363411e-01  1.2836247752681995e+00  1.2657168629638471e+00  1.3636797112578312e+00  1.4322136143769006e+00  4.2429160591557630e-01  6.6040755826004383e-01  0.0000000000000000e+00  3.5713015765914352e-01  1.2085422604072675e+00  1.3849708226332673e+00  0.0000000000000000e+00  1.4119260842970176e+00  3.7318913435287432e-01  1.1213692143192868e+00  1.0361898845079658e+00  1.3511074084433774e+00  7.3230232358581382e-01  0.0000000000000000e+00  4.1035909443133461e-01  1.3754638649212338e+00  1.4760234398492631e+00  1.3456270923945850e+00  6.7541416671909582e-01  0.0000000000000000e+00  1.4841535489287523e+00  7.9643462517845554e-01  1.1253258572987470e+00  8.9302748802238441e-01  1.3532766922072099e+00  1.2935525364802982e+00  0.0000000000000000e+00  3.5131709480626749e-01  3.5078857452988133e-01  0.0000000000000000e+00  1.4951029151354658e+00  1.4834151030220601e+00  1.4493377996188661e+00  7.3828393632350908e-01  3.5915152427083163e-01  1.2803576473470022e+00  0.0000000000000000e+00  3.5087560814274149e-01  1.0973359681466195e+00  1.2188630281920412e+00  8.8496900711528925e-01  1.4832594619996147e+00  1.4917370271829395e+00  1.4703274556166042e+00  3.6104372874100299e-01  1.4949299949155406e+00  0.0000000000000000e+00  0.0000000000000000e+00  1.4722519315732510e+00  0.0000000000000000e+00  1.2847268663638203e+00  1.4721245808769794e+00  9.1075748450763128e-01  0.0000000000000000e+00  0.0000000000000000e+00  0.0000000000000000e+00  9.1089727663121212e-01  1.4718702801825976e+00  1.2845881536037085e+00  9.1125103914254169e-01  1.2849711789293337e+00  9.1100017230599262e-01  1.3285354151279578e+00  6.4280176090996133e-01  1.4033073864729884e+00  3.5811952802089791e-01  1.3349200871197779e+00  1.2397005878143137e+00  1.0300741150827470e+00  3.3740107042749040e-01  1.1048394194200812e+00  1.0734347042953560e+00  1.4758725972570745e+00  1.4402643923530387e+00  1.4880119027655090e+00  9.6530412761345208e-01  1.0991952231144488e+00  1.0024370012984491e+00  1.0212341869400825e+00  6.7473665617758760e-01  1.3564272777975774e+00  6.3646064536966418e-01  1.2890250189533254e+00  1.1629199318875643e+00  3.2507541396233725e-01  1.0654461322509488e+00  6.3598758846470860e-01  7.0244241479843961e-01  1.4588835979980037e+00  1.4607958913990984e+00  6.8532099894337384e-01  1.3142439257595162e+00  1.4896066889082598e+00  8.2914566174770465e-01  3.1010035276955955e-01  1.3945494235513693e+00  1.2698693637426133e+00  3.1032724465011513e-01  2.9488985819523261e-01  1.2525549294081588e+00  1.1859801952717344e+00  1.4406964175173766e+00  1.4418582959740820e+00  1.0503611826723087e+00  1.1738629770036635e+00  1.4864697368090061e+00  1.4127067572477841e+00  1.4787255450516350e+00  8.7370873620438960e-01  8.6681809576398872e-01  1.1578957536702739e+00  1.4875999863825651e+00  1.4956757649523369e+00  9.5061378014469855e-01  2.8652606714768886e-01  2.5894939712782766e-01  1.2078052551304872e+00  1.4463806135434432e+00  9.4081871548997764e-01  7.8814825305900549e-01  1.4274112801531944e+00  8.1998696227423107e-01  1.4946474190357804e+00  1.3705759142632337e+00  5.7585302776999325e-01  2.7633364328592869e-01  2.5874219812127880e-01  6.8182177560375068e-01  1.4482991082518037e+00  1.2557294242993486e+00  1.2966622750316610e+00  1.3615464786458511e+00  5.6611812695445385e-01  3.0241557217389636e-01  1.4611571446982428e+00  1.4948850565027589e+00  2.3081013377609069e-01  7.0589652853315732e-01  1.3715889303842193e+00  1.1534978630413726e+00  1.0809201383148350e+00  1.2472966701239925e+00  1.3769212839009819e+00  4.0240073167257157e-01  4.1333586392612737e-01  1.0859963007310425e+00  9.0935979680479462e-01  1.1670822021863922e+00  1.0730248551182691e+00  1.3972976995775765e+00  7.4483243777238906e-01  6.8609558960340511e-01  5.7812081293107087e-01  3.0909250693285201e-01  5.0807273129090524e-01  7.3478122417318614e-01  7.4510595281525038e-01  1.1923339295060671e+00  2.4280240242649204e-01  3.2779367980690066e-01  5.7551476552246250e-01  7.1618795969560478e-01  2.4783664250942519e-01  3.0429925634961918e-01  8.6477184193010836e-01  8.6056674368564479e-01  4.7613140832296008e-01  7.9469873838629457e-01  9.9470602254555451e-01  1.0463343239249761e+00  9.6783708491872644e-01  1.4455397344286876e+00  1.4354483360389583e+00  1.4793856854491245e+00  1.1866633762632532e+00  1.0365488734323334e+00  2.0416618402123191e-01  1.0838276861343052e+00  1.2609772330128723e+00  5.9062782794255708e-01  9.2959424920919687e-01  1.1313730730303406e+00  1.0957794664864973e+00  1.3057086942395557e+00  1.3778747544679510e+00  1.4876780210984750e+00  8.4683567640818291e-01  1.4811567762151592e+00  5.9140419163115787e-01  7.7446686488985983e-01  1.4733325368859123e+00  1.3606962391104513e+00  1.1753991101058865e+00  1.9820458580122918e-01  1.4554477356641411e+00  1.4819568599500550e+00  1.4251345105035551e+00  1.2085241955759611e+00  1.4939796959821088e+00  1.2342306195281214e+00  1.0639939208995854e+00  8.5068567256109218e-01  1.8912875705770990e-01  1.4541022999616813e+00  1.4895699758881069e+00  1.4898047599441389e+00  1.4434648582894194e+00  1.4627670372332777e+00  1.9476143225651890e-01  7.5126955550268237e-01  1.9137237990451700e-01  1.3489373237924698e+00  1.8947875695942179e-01  8.7117995331845244e-01  1.4895257377863202e+00  1.8460364068124030e-01  1.2646007524390690e+00  1.0497756728644629e+00  1.0495779164072405e+00  5.0557330502568099e-01  1.3487203877616993e+00  1.4891928470340554e+00  1.4894522839000299e+00  1.4892215999831186e+00  1.8135545664540170e-01  2.3122484469280402e-01  1.8972439530623114e-01  1.4679647768610227e+00  1.4269901242586529e+00  1.0522920227607813e+00  5.9646098594661712e-01  1.8242783682713637e-01  8.0662878884292377e-01  1.2902802393277992e+00  7.7869286053156406e-01  1.4937878760364445e+00  1.4454320523149702e+00  5.5513037306952517e-01  6.8851230189761414e-01  1.4933332107383239e+00  1.4701135793569513e+00  1.3154155229404187e+00  1.4088307661726762e+00  1.8868211346612410e-01  1.3931645832627211e+00  1.2295553149773057e+00  1.3182554010656946e+00  1.3864593008332238e+00  1.2627406634639544e+00  1.4784254101063792e+00  1.4111471684711860e+00  8.3983990197678715e-01  5.4784361404470094e-01  1.3870095250610166e+00  1.4165454518494967e+00  9.7481362833859297e-01  1.3033043804033051e+00  9.7118728137867716e-01  1.4284431866402814e+00  1.4636173651168334e+00  1.4474689565898278e+00  1.3357200357968424e+00  1.4932040251884593e+00  7.6319506367384726e-01  2.8268645464969144e-01  1.3362377454354746e+00  4.1356940007127196e-01  1.3321960879328691e+00  1.1307304770076445e+00  1.2442993777008304e+00  1.3209675465393105e+00  1.0373106989581056e+00  1.4238587175300543e+00  1.3950598229389359e+00  1.2881140047212438e+00  1.1655349160617399e+00  1.4712871112979242e+00  0.0000000000000000e+00  1.4926609908309323e+00  1.4839684857404634e+00  1.1965111766148813e+00  1.1853778619453561e+00  5.7401882778371893e-01  1.4948539109510943e+00  1.4805278295167890e+00  8.9134849588142173e-01  1.1708881700575484e+00  1.3373324283207431e+00  9.3475886772787864e-01  1.0177621420091747e+00  0.0000000000000000e+00  1.4006040938653361e+00  1.8294962515360358e-01  5.2746965748183305e-01  1.4726493596412649e+00  4.6871774774886504e-01  2.3075552566345470e-01  8.9325894043875631e-01  1.2474781884508195e+00  1.3150426884468780e+00  2.0943011398202374e-01  1.0360411419742637e+00  4.7249781951650027e-01  6.0479266633547379e-01  1.2712810480536092e+00  1.4310597045026954e+00  6.0336567723381063e-01  1.4318158223709292e+00  1.8238851345747317e-01  1.3906779601689154e+00  1.3191148721955059e+00  5.8335452589646331e-01  9.4992592121868313e-01  8.3517342651512816e-01  1.4699101629503237e+00  5.6503944468979617e-01  5.8742526554454844e-01  9.4738624655570391e-01  0.0000000000000000e+00  1.3463759042568146e+00  0.0000000000000000e+00  9.7976404606154199e-01  1.2511214232875005e+00  1.2998785006121210e+00  1.0972042382192639e+00  1.4949046532996706e+00  1.4810131486828597e+00  1.4173143210271664e+00  1.2029809124771453e+00  1.3601619729958205e+00  0.0000000000000000e+00  2.1181355536386681e-01  9.1033340447920885e-01  1.8103353408469666e-01  7.2608170874172051e-01  1.1711798329304575e+00  4.0324389319066489e-01  1.0133704450009553e+00  7.8552813938816757e-01  6.3205775238049855e-01  3.1384247590163811e-01  0.0000000000000000e+00  4.6667849707270576e-01  4.7229398636306819e-01  5.0427433415316780e-01  1.4918527668497317e+00  0.0000000000000000e+00  9.8075273998910451e-01  7.9237825631413961e-01  1.4932977078102183e+00  1.3508582757147929e+00  1.4420662842640295e+00  1.4198628973143586e+00  1.3492597248420057e+00  1.4355931110716655e+00  1.4941943788090513e+00  6.8084144889246812e-01  1.0822407539022247e+00  8.4233914096311568e-01  1.1077717453871818e+00  1.4742034542423850e+00  1.4810812727147729e+00  0.0000000000000000e+00  9.7546817483467907e-01  2.0738804203570438e-01  2.5258221573651213e-01  1.1593182959380282e+00  1.2138624830008347e+00  1.4068358382069495e+00  2.3729212856202592e-01  7.3688107782769341e-01  1.4477247773192057e+00  1.3009659084811944e+00  1.4036699696943753e+00  1.1620603047461140e+00  1.4569737181601770e+00  1.4865976145280166e+00  1.2081972985120637e+00  1.8589733818853779e-01  1.9967884358244822e-01  2.0407294111221877e-01  1.4293327203743802e+00  5.4093377933127229e-01  1.2864533360055432e+00  1.4750156768032243e+00  1.4519492824402738e+00  1.4164947073077783e+00  9.1265503858306474e-01  1.1038942651634243e+00  4.5418626395453809e-01  1.9319519137929056e-01  1.4592862148088108e+00  1.2089166214601976e+00  1.2778214428899166e+00  1.3927520674675808e+00  1.3881511036683811e+00  1.3828150753257971e+00  1.1661473476924107e+00  1.1214511486635690e+00  1.2725931840637150e+00  1.8239776080120035e-01  0.0000000000000000e+00  1.1301466807265048e+00  1.4745005402036298e+00  1.4783002468477546e+00  1.4303720120590568e+00  5.4170428850552077e-01  2.0432660088369908e-01  1.4948141920620099e+00  6.9271231545651013e-01  7.2452091531380924e-01  1.2820910393618701e+00  1.3301988263052040e+00  6.5559729046196646e-01  5.3007346639520525e-01  7.9221706355101085e-01  8.2825333485599484e-01  1.4837586189762260e+00  6.1750117172417718e-01  8.1382895906062891e-01  8.2455829280787041e-01  1.3589065389287545e+00  9.5758807027409854e-01  9.8085920076702193e-01  1.3963706930178035e+00  1.3492573677876387e+00  7.4530206329540372e-01  1.1747719888764461e+00  3.7236720912428495e-01  1.1147742664333060e+00  1.4466873149819306e+00  1.9490759559361279e-01  4.3927554645842687e-01  1.4927245339144886e+00  4.6405588257201047e-01  5.6344386867929830e-01  4.4427341282692095e-01  8.7496037853236530e-01  1.3231223616416439e+00  1.4952846080527937e+00  5.4727065234686578e-01  1.3764304244533996e+00  1.4211066767048330e+00  1.0803164357654256e+00  1.0718204380738128e+00  6.2800091348399545e-01  1.0285627405505833e+00  1.0221948667874530e+00  1.4025718258015509e+00  1.4322496195011041e+00  1.2456286856756535e+00  1.4945456927575465e+00  8.9377074686269553e-01  1.4710553036830776e+00  1.3764507994395943e+00  4.6558424633244161e-01  1.3156862947772237e+00  7.7149693872717284e-01  1.4844003775526360e+00  8.3469658189187856e-01  1.9234703551771026e-01  3.9483625406299805e-01  5.1472614683668572e-01  6.6341480385162954e-01  1.4695252560912506e+00  1.4425627906926253e+00  1.4627126274630402e+00  1.0049350829206101e+00  1.3894659809945844e+00  1.3487696254098085e+00  1.2266620267977246e+00  1.2617623236176558e+00  1.4889524125456679e+00  0.0000000000000000e+00  1.0764762426639050e+00  9.5080045800013135e-01  7.3409798521807823e-01  6.1535217744518356e-01  8.7425809776699726e-01  7.6566947355242132e-01  1.4939960137908606e+00  5.7024779954456817e-01  1.3140288342416275e+00  9.2068998608698727e-01  9.9795680164671419e-01  1.1563290770310948e+00  0.0000000000000000e+00  5.0830826676594232e-01  4.8221590395967495e-01  7.8867682401860273e-01  7.3394251117627607e-01  7.8166118441359134e-01  1.2549485376993377e+00  1.1664516536583289e+00  1.3523497288973825e+00  1.3930200698484958e+00  7.6901391581679301e-01  0.0000000000000000e+00  1.8339019668162676e-01  4.2991820344815773e-01  1.4756079943816367e+00  5.4818249079479497e-01  1.0494005307284910e+00  1.4512634142488905e+00  1.4853077950475289e+00  7.5158511583280885e-01  1.1133332408052812e+00  8.3277483964655907e-01  2.9110437840038356e-01  1.4172006929925096e+00  1.3326044188748012e+00  1.4896187969290891e+00  1.4945109818946258e+00  2.5391071816065230e-01  7.8988059340682060e-01  1.9205930399295479e-01  1.4954660258976413e+00  2.4854305394859899e-01  1.4006523608930779e+00  1.0217456928429041e+00  7.8859676303689641e-01  0.0000000000000000e+00  0.0000000000000000e+00  0.0000000000000000e+00  1.8135207501914050e-01  0.0000000000000000e+00  0.0000000000000000e+00  1.3493321811979981e+00  5.0877086114724535e-01  0.0000000000000000e+00  0.0000000000000000e+00  1.3490797224785451e+00  0.0000000000000000e+00  0.0000000000000000e+00  1.4893378677647384e+00  1.4890822909653096e+00  1.4425604328555870e+00  1.4425499130938673e+00  1.4893548442158149e+00  1.4895522753052457e+00  0.0000000000000000e+00  1.2089011205211351e+00  0.0000000000000000e+00  0.0000000000000000e+00  1.0215075336152093e+00  0.0000000000000000e+00  0.0000000000000000e+00  5.0827076612737987e-01  0.0000000000000000e+00  0.0000000000000000e+00  7.8852021042437759e-01  0.0000000000000000e+00  5.0838101898868282e-01  1.8237920145451322e-01  0.0000000000000000e+00  1.4427514970838289e+00  0.0000000000000000e+00  1.0219233431770454e+00  0.0000000000000000e+00  1.2087445675474893e+00  7.8839570644192103e-01  1.1025597538468401e+00  1.2445235572410107e+00  4.3090389982976968e-01  1.1219210267560078e+00  1.1041467508157858e+00  1.2690810694997081e+00  1.2682805826567767e+00  1.1955615557166850e+00  1.0420198836403121e+00  1.0176732174023271e+00  1.2439157985392275e+00  1.5732935612489501e-01  1.0744750558773710e+00  9.2371156137104837e-01  1.1820025667753840e+00  1.4426504198547383e+00  1.3595964359978863e+00  1.4050593216867802e+00  1.4882853892275980e+00  1.5886950146423964e-01  1.0101225374854963e+00  1.1926037145938377e+00  1.4774996191867480e+00  1.4952199226465965e+00  1.2672014757897401e+00  1.4878926216305921e+00  1.4706616310882226e+00  1.4192879152557207e+00  1.2578260320893839e+00  1.4893351503455023e+00  1.4093969538774109e+00  1.1044905931012687e+00  1.4588035747761265e+00  1.4838972659839416e+00  7.9762407757229359e-01  1.4479281332434117e+00  1.3829045052536681e+00  1.2391172753512143e+00  1.3530282886922682e+00  1.4654976984054362e+00  1.1527757046243501e+00  9.7617638683447727e-01  1.4898027407434791e+00  9.6465235064151977e-01  1.3190161991958904e+00  1.3552374611883842e+00  1.4785341161700101e+00  7.5578617214969079e-01  1.4575443458290995e+00  1.4808894176261826e+00  1.4910503302133402e+00  1.4721805149237088e+00  1.2178603462096018e+00  1.3120263184499841e+00  1.2171620080276624e+00  1.0728755459312505e+00  1.1210947354583671e+00  4.5245815511278986e-01  1.2772971159217019e+00  1.2152278923295521e+00  1.3881793167909242e+00  4.5800497388306288e-01  3.4946955218886622e-01  1.0769258528463015e+00  1.1704822931538210e+00  1.3894538648759991e+00  5.0005891365684418e-01  8.5616841659319420e-01  1.3838270179644465e+00  1.3450091328865346e+00  1.2762058158422844e+00  4.9728103290170766e-01  7.5847898975352290e-01  6.4514007895190040e-01  4.3706829080040716e-01  1.4622240194308280e+00  1.0351521319942865e+00  1.2341437264750406e+00  1.4038993573883500e+00  1.0954621604625876e+00  1.1547778337515024e+00  1.3172684443353910e+00  1.5102122054956543e-01  1.4815050705670949e+00  1.4621858000051855e+00  1.4941474349846031e+00  1.4861181666471734e+00  1.3668225320747158e+00  1.2719986053236094e+00  3.7610312305702087e-01  1.4922887663306861e+00  1.3059826001241843e+00  1.3835508550265121e+00  7.9441749731284828e-01  6.3629866987423545e-01  9.8455176160168723e-01  4.6910528087072284e-01  6.0833709768991417e-01  6.3817873061567854e-01  1.2321574129575816e+00  4.9547897802617119e-01  1.7132636897186668e-01  1.4601314084235590e+00  1.8201644076598664e-01  1.2514972746715058e+00  1.4931879961045234e+00  9.7663070791354933e-01  9.1255419330370302e-01  1.3060231125116384e+00  1.4836128411184428e+00  8.9628793760066650e-01  1.4573664896938385e+00  1.6295727197755011e-01  3.7297160523102613e-01  2.6172438160166994e-01  9.7671235249250976e-01  9.0257272098560215e-01  1.0180424591766626e+00  1.5162061087807541e-01  7.8634757708670922e-01  1.1902089914072178e+00  3.3714620189242206e-01  1.4388817306780330e+00  1.7589089343840536e-01  4.8437194437729508e-01  7.0035994798761148e-01  6.0530589207417906e-01  4.5992345635269938e-01  1.3555453534990878e+00  1.13500