<?xml version="1.0"?>
<VTKFile type="UnstructuredGrid"  version="0.1"  >
<UnstructuredGrid>
<Piece  NumberOfPoints="2513" NumberOfCells="4852">
<Points>
<DataArray  type="Float64"  NumberOfComponents="3"  format="ascii">-1 1 0  -1 -1 0  1 -1 0  1 1 0  0 -1 0  1 0 0  0 1 0  -1 0 0  0 0 0  -1 -0.5 0  -0.5 -1 0  -0.5 1 0  -1 0.5 0  1 -0.5 0  0.5 -1 0  1 0.5 0  0.5 1 0  0.4166666666666666 -0.4166666666666667 0  -0.4166666666666667 0.4166666666666667 0  -0.25 -0.5 0  0.5 0.25 0  -0.4861111111111112 -0.06944444444444445 0  0.0732758620689655 0.507183908045977 0  -0.625 -0.625 0  0.625 0.625 0  0.7380952380952381 -0.25 0  -0.7099116161616161 0.2105429292929293 0  -0.25 0.7380952380952381 0  0.105392156862745 -0.6348039215686275 0  0.6770833333333334 -0.6770833333333333 0  -0.6770833333333334 0.6770833333333334 0  0.3472222222222222 -0.06944444444444446 0  -0.7264957264957265 -0.3044871794871795 0  0.3141940982507127 0.7297313660835709 0  0.02049587951122483 -0.3227479397556124 0  -0.2690972222222223 0.1475694444444444 0  0.3859500089908372 -0.7274430156831472 0  -0.2228477945123298 -0.1761765495248019 0  0.2182539682539683 0.1884920634920635 0  0.75 0.375 0  -0.145442219440968 -0.7602211097204841 0  0.7088913690476191 0.0427827380952381 0  -0.75 -1 0  -1 -0.75 0  1 0.75 0  0.75 1 0  -0.7439982703698937 -0.04614153195464455 0  -0.4609235096577606 -0.3356498099556895 0  0.4063134471431929 0.4895621842856023 0  0.25 -1 0  -0.25 -1 0  -0.75 1 0  0.75 -1 0  -1 -0.25 0  -1 0.25 0  1 -0.25 0  -0.25 1 0  1 -0.75 0  -1 0.75 0  0.25 1 0  1 0.25 0  -0.4041423272138783 -0.7597141090712928 0  0.06500839607911253 0.7578103030529481 0  -0.1572801182352047 0.3838997021864289 0  -0.6528005242053915 0.4409494757946086 0  -0.4930160984848485 0.1544744318181818 0  -0.4732142857142858 0.7752976190476191 0  0.6398809523809523 -0.4538690476190476 0  0.5166054117396399 -0.2161233620965164 0  -0.002273787244753427 0.2232363985975174 0  0.1500564496765022 -0.1524955293952667 0  0.2016720420046758 -0.4410343282803009 0  -0.08495178036419618 0.6274139771124571 0  -0.8367311471133162 0.3642591720794645 0  -0.8333333333333334 -0.625 0  -0.594323836800685 -0.8231079456002283 0  -0.4466957714776065 -0.5349126855671806 0  0.8125 0.5625 0  0.78125 0.78125 0  0.5091392650016769 0.7947130883338923 0  0.125 -0.8382681931833136 0  -0.8184523809523809 -0.8184523809523809 0  -0.07781530426104531 -0.5819319697006881 0  0.5085055196703295 0.04967610411902112 0  0.2918471072074933 -0.276017202318847 0  0.5120763537765269 -0.5898771553229597 0  0.625 -0.8585349462365591 0  0.8158532234335381 -0.8158532234335381 0  -0.5198088446315396 0.5739411553684605 0  -0.8585349462365591 0.625 0  -0.8150493805516597 0.8156205699829586 0  0.8585349462365591 -0.625 0  -0.2688268348649726 0.5439331383603209 0  0.8242100426758139 -0.4436043596336612 0  0.5833756314287952 0.4479378157143976 0  0.8690476190476191 -0.125 0  -0.125 0.8690476190476191 0  -0.8692745600729823 0.125 0  0.8696725120759167 0.125 0  -0.625 0.8711516477451908 0  0.2339522463269718 0.3879558377955778 0  0.2453709502295031 0.5655822922838026 0  0.1730610651637797 0.02021709580868947 0  0.3245402594056757 -0.5644672020485209 0  -0.7291666666666666 -0.4816595441595442 0  -1 -0.375 0  -0.5811140848639904 -0.2127276307675001 0  0.673332592838314 0.2158348143233718 0  0.375 1 0  -0.5714768890989919 0.2985103444040069 0  -1 -0.125 0  -0.8453692574786325 -0.1875 0  -0.3144549134065865 -0.02408675326008025 0  -0.2898414972096258 -0.3336092734780093 0  -0.1075052092206287 -0.4224330421314983 0  -0.05043970703604117 -0.1652278959397459 0  0.6459672950297897 -0.1113415301525317 0  0.4645210271029513 0.6398480556579343 0  0.3512863754411909 0.0937979496253573 0  -0.6063160985568274 0.03891469652249891 0  -0.3428819444444445 0.8690476190476191 0  0.625 1 0  -0.1602164796159982 0.02697860906625157 0  0.04648110064133829 -0.4808416424239687 0  1 0.875 0  -0.3836102479201657 0.6484936449177356 0  -0.3776011723096096 0.263078478984336 0  -0.6024978259969829 -0.3949628096211138 0  0.125 1 0  0.2010781308272777 0.8456221018461906 0  0.2822509696388829 -0.845902544691141 0  -0.3285533674953515 -0.6289773550938936 0  0.3461306793221754 0.278777492464833 0  0.4737475672408696 -0.8508448959534423 0  0.2384632828836344 -0.7029523187242811 0  -0.004777287059791593 0.3759269695907358 0  -0.8499735021850066 -0.3912320205328522 0  0.1222536293721587 0.2963971539625205 0  -0.3769456520999688 -0.203572526805711 0  -0.2749617205755651 -0.8464290792698902 0  0.004805888512766143 -0.747174355248311 0  -0.125 -1 0  -0.06001061822252458 -0.8724007765244854 0  0.875 0.4375 0  0.854421179608893 0.271342359217786 0  0.875 1 0  -0.1499861095763589 0.2358309656934888 0  0.3381943639137225 0.8663061796405532 0  -0.7853090110442228 0.4998412775277108 0  0.7398165998560814 -0.5535192694951373 0  0.1580042122341573 -0.3100246140259917 0  -0.7291666666666667 -0.7142857142857142 0  -0.375 -1 0  0.6483368386154684 0.8514905990110488 0  -0.1295370103291928 -0.2826118305021242 0  0.07458201853700455 0.1123894386563915 0  0.6146465857036327 -0.3161203659316075 0  0.5551898493894731 -0.740296118159085 0  0.375 -1 0  0.482702798370208 -0.084133350091034 0  0.87890625 0.68359375 0  -0.05917195534525846 0.4971092425697621 0  0.1260710309213975 0.6343750312956699 0  0.8690476190476191 -0.3077066815262848 0  -0.2912010232560567 0.3668168386732139 0  -0.875 1 0  -1 0.875 0  1 -0.875 0  0.875 -1 0  -0.8689564281364567 -0.006189266075306407 0  -0.7449425635110547 0.08458938160051771 0  -0.7150266761936593 -0.1739444581417552 0  -0.5260034831318311 -0.711099823962112 0  -0.4724626808827322 -0.871722230709409 0  0.4734436795977052 0.377714794132168 0  -0.875 -1 0  -1 -0.875 0  0.6927189078571988 0.5156567235715964 0  -0.3742497615796874 -0.4296005251260107 0  -0.1969436423297711 -0.6387157229772615 0  -0.6179496409766825 -0.08933356056510935 0  -0.424405057115988 0.04452428810878029 0  -0.08479048335844169 0.1279607007132633 0  0.003830300099055113 0.8712085230656206 0  0.8748778838820267 -1.379218479898026e-05 0  -0.375 1 0  -0.625 1 0  1 0.125 0  -0.125 1 0  1 -0.375 0  1 -0.125 0  1 -0.625 0  0.625 -1 0  0.125 -1 0  -0.625 -1 0  -1 -0.625 0  -1 0.125 0  -1 0.375 0  -1 0.625 0  1 0.375 0  1 0.625 0  0.6325660748712082 0.3335187599557389 0  -0.06420945895056573 0.7549874027425891 0  -0.8769015540914771 0.2478802253893416 0  0.871875 0.871875 0  -0.6868091492840067 0.3270978624973681 0  -0.5363597469565949 0.412994850055505 0  -0.6803734992638302 0.5574295000651103 0  -0.7076253581162534 -0.8803439094224437 0  -0.8778089002295137 -0.5106896447504627 0  -0.3860184984222981 0.530566778071246 0  0.6109900617121508 0.1128453077697081 0  0.3896945134930274 -0.1915382873255086 0  0.7605656944697778 -0.06822134873122943 0  0.3576151269893478 0.5948388411612135 0  -0.5689902680792265 -0.5143596830118065 0  0.6262446286847614 -0.5735657901943212 0  0.2030558252325225 -0.5625263842513452 0  0.6123273142928579 0.7407533260723429 0  0.4016460890123554 -0.3042863223111857 0  -0.59039693199147 0.7578418819188018 0  0.7276932493917544 -0.3705808024528924 0  0.5222536818742854 -0.4713886230400014 0  -0.5101986527137737 0.8848365765607674 0  0.510560172809238 0.5356013299918891 0  -0.3603569195756083 0.75823710606415 0  0.1967279277813232 0.728226870058472 0  -0.6086880986371127 0.1545624071548516 0  -0.38105366729386 0.1511189987807864 0  -0.2944659463671584 -0.7359061804869591 0  0.5060729154966499 -0.3475227845833823 0  -0.09281616240412746 -0.06197858250969457 0  0.7649739583333334 0.6673177083333334 0  0.7628906249999999 0.890234375 0  -0.2666864184909611 0.2585504071132311 0  0.3635064892129658 0.3878003602709461 0  -0.2339409722222222 0.8901937905844155 0  -0.1718792125974916 -0.8957733325456778 0  0.1001768566329531 0.4023510017391879 0  0.3120260172693757 -0.4540546875576884 0  0.7804062804433681 0.1896628610854537 0  0.4087715451998049 0.187961780041608 0  -0.1584963477271457 0.5451611892421655 0  -0.8926817849258324 0.463022006336401 0  0.2338091473445219 -0.07576267331277289 0  0.08171112182813692 -0.2349087687359925 0  0.04635385178956847 -0.1044635073718474 0  -0.4377391632114205 -0.6448874471423088 0  -0.1907678351227189 0.6480215912813945 0  0.300605946475244 0.4741444604171038 0  -0.2145033720757486 -0.06751709909419711 0  0.6069191921170397 -0.005492331448357812 0  0.0214718770761248 0.6032397936031719 0  0.5476675683364878 0.8992752415326501 0  0.4387475014316537 0.9093708953002239 0  -0.4932997685306436 -0.4381009159993523 0  0.2515197695339056 -0.1791673369138964 0  -0.7291666666666667 -0.6088789682539681 0  -0.9166666666666667 -0.6875 0  0.620579540363709 -0.2122431523583302 0  -0.484950136419973 0.6719440339397442 0  0.2857044415400258 0.0137589173127316 0  -0.8945708364098356 -0.288306105327986 0  0.4043102720140535 0.7842914560451557 0  0.04123256238752064 -0.9026968245801402 0  0.2003676884403109 -0.9091888601740487 0  0.1068775558538842 -0.7373377130403223 0  -0.4804566783514427 -0.1763307203045643 0  0.108286342087769 -0.3993789328997278 0  -0.191883080105361 -0.3640821726430649 0  -0.07025064492006244 0.2984876656890053 0  -0.7039324641409584 0.788312126296613 0  -0.7311286585775438 0.8932502354831682 0  0.5171409396884947 0.1503852691889257 0  0.4229392823658633 -0.003216522184234835 0  -0.5621736087218259 -0.919558629836806 0  -0.626474064879544 -0.7266572613636506 0  0.2446828746617422 0.2867616783302419 0  0.1759429608742923 0.4776611759306416 0  -0.3468240303741654 -0.5260416435617549 0  -0.7465808808425306 0.4069574477998361 0  -0.7819962170660292 0.2802441065650652 0  -0.3742623214119594 -0.8547800509641984 0  0.1014498009713561 0.8506721983266377 0  0.4285217620918213 -0.5230190595570253 0  0.4091738370487775 -0.6256346204225141 0  0.78125 0.46875 0  0.90625 0.53125 0  -0.4791801348852565 0.2553992655702126 0  0.7843318610782772 -0.7086046956885941 0  0.8909728264971901 -0.7355183796514634 0  0.7041908166528879 -0.7830649143180282 0  0.7311821352
[...]
<PointData  Scalars="velocity-2"> 
<DataArray  type="Float64"  Name="velocity-2"  format="ascii">0.0000000000000000e+00  0.0000000000000000e+00  0.0000000000000000e+00  0.0000000000000000e+00  0.0000000000000000e+00  1.4658021668093597e+00  0.0000000000000000e+00  1.4657589632938308e+00  1.4645809902495628e+00  1.1027726372013367e+00  0.0000000000000000e+00  0.0000000000000000e+00  1.1021732776355195e+00  1.1029331297524165e+00  0.0000000000000000e+00  1.1025176017243214e+00  0.0000000000000000e+00  1.2135798547806671e+00  1.2134166967304751e+00  1.1033337770041958e+00  1.3745916400802274e+00  1.4586155546404866e+00  1.0916613161422390e+00  8.9801261128282228e-01  8.9846977794500527e-01  1.3749341342441634e+00  1.4008752968312133e+00  6.7304716473647208e-01  8.8033664500456099e-01  7.9957267795797016e-01  7.9997510078910894e-01  1.4583275629044994e+00  1.3309443332730233e+00  6.9134816224965034e-01  1.3138215701689191e+00  1.4337823653864994e+00  6.9617554631234002e-01  1.4192903668688439e+00  1.4135769601325694e+00  1.2605609032440701e+00  6.2436086606016150e-01  1.4626427972316736e+00  0.0000000000000000e+00  6.4778903278538036e-01  6.4804764474773702e-01  0.0000000000000000e+00  1.4626470875110851e+00  1.3010555121806084e+00  1.1167708198723898e+00  0.0000000000000000e+00  0.0000000000000000e+00  0.0000000000000000e+00  0.0000000000000000e+00  1.3748498336805626e+00  1.3748931282671795e+00  1.3747810632398227e+00  0.0000000000000000e+00  6.4785553434900678e-01  6.4778030253369179e-01  0.0000000000000000e+00  1.3750896432698034e+00  6.2602480411394412e-01  6.3012897365379583e-01  1.2514807278949653e+00  1.1830137291196876e+00  1.4299951105952482e+00  5.9088515482865489e-01  1.1659108704758074e+00  1.3982212521547541e+00  1.3930871503572353e+00  1.4313398128660113e+00  1.1828677271036911e+00  8.9380405343310010e-01  1.2728266458903674e+00  8.9842321784953671e-01  4.7794024111043437e-01  1.0503682310169939e+00  1.0061174511497046e+00  5.7714105586433029e-01  5.4560324525716952e-01  4.4079664584012435e-01  4.8999487329726477e-01  9.7374914015266389e-01  1.4618694310789935e+00  1.3546706097426611e+00  9.5997220938409311e-01  3.9016003422475520e-01  4.9623025909698415e-01  9.8681952327463851e-01  8.9825336657020949e-01  4.9652634306524362e-01  8.9855635783894539e-01  1.0363573971929629e+00  1.1798083492298834e+00  1.1734084044300599e+00  1.4425008061175995e+00  3.6309958410651982e-01  1.4429081398192471e+00  1.4427203286363781e+00  3.5767344828206887e-01  1.2466277012417841e+00  1.0010092981380159e+00  1.4650644051480965e+00  1.0027518464329523e+00  1.1286091796667472e+00  1.2615167236081672e+00  1.4003603758482250e+00  1.3975592929020524e+00  0.0000000000000000e+00  1.3355224758714463e+00  1.4431688112222274e+00  1.4140963680389866e+00  1.4636531402998032e+00  1.3037950101197235e+00  1.2060097592650736e+00  1.4262468659250505e+00  1.4471424089548295e+00  8.7100869314439888e-01  1.4523863817543357e+00  1.4632784316838696e+00  3.6263392800689948e-01  0.0000000000000000e+00  1.4652175129790967e+00  1.1291961252495497e+00  3.4817103885045680e-01  8.5490905925722982e-01  1.3641677901389819e+00  1.2391140745178699e+00  0.0000000000000000e+00  4.2288968030341778e-01  4.2175254607081941e-01  8.9112804836068360e-01  1.3524939798103479e+00  4.0974572919030022e-01  7.4712978168533983e-01  1.2605185538719907e+00  1.2430173643571434e+00  1.3381441796126661e+00  1.4044230039483874e+00  4.2095344828189335e-01  6.5364947777626436e-01  0.0000000000000000e+00  3.5448931174751447e-01  1.1874457821984343e+00  1.3586606184488084e+00  0.0000000000000000e+00  1.3847858523382286e+00  3.7031899407174407e-01  1.1029629800194019e+00  1.0200589191782532e+00  1.3257559197030022e+00  7.2402804866166004e-01  0.0000000000000000e+00  4.0708210499159803e-01  1.3495021125923006e+00  1.4469991800385149e+00  1.3205728416751208e+00  6.6849123165258606e-01  0.0000000000000000e+00  1.4548990994486075e+00  7.8685413807686821e-01  1.1068246014238718e+00  8.8108605241299920e-01  1.3279039048073991e+00  1.2699159949274417e+00  0.0000000000000000e+00  3.4870628606354048e-01  3.4817607445675031e-01  0.0000000000000000e+00  1.4654138842672835e+00  1.4542013288232531e+00  1.4210276197611136e+00  7.2987250598517528e-01  3.5640573428963956e-01  1.2571891052042901e+00  0.0000000000000000e+00  3.4827330832952968e-01  1.0795153286861978e+00  1.1975975069580893e+00  8.7315716754102601e-01  1.4539740813394506e+00  1.4622064552735725e+00  1.4414436075911887e+00  3.5839412598064313e-01  1.4652771680793635e+00  0.0000000000000000e+00  0.0000000000000000e+00  1.4433067032297191e+00  0.0000000000000000e+00  1.2614407230083593e+00  1.4431579855342314e+00  8.9829194470909135e-01  0.0000000000000000e+00  0.0000000000000000e+00  0.0000000000000000e+00  8.9844048498937701e-01  1.4429199174029113e+00  1.2612910858288728e+00  8.9879201870866621e-01  1.2616690845214953e+00  8.9853519586249564e-01  1.3038772020568858e+00  6.3641406234331110e-01  1.3764755075931632e+00  3.5541030671013329e-01  1.3100236901669178e+00  1.2177283286094651e+00  1.0143286173287478e+00  3.3490701328524208e-01  1.0868254470321326e+00  1.0563715841735188e+00  1.4467839681250301e+00  1.4122686844785002e+00  1.4586381833467932e+00  9.5135739760657601e-01  1.0814160335547869e+00  9.8742235558038427e-01  1.0057284140810978e+00  6.6762986716647754e-01  1.3309594845854322e+00  6.3007960864330947e-01  1.2654723975221416e+00  1.1433421291464996e+00  3.2266180326838695e-01  1.0487509986860386e+00  6.2974796450645487e-01  6.9488054195245264e-01  1.4303452767235192e+00  1.4321277310829172e+00  6.7804134979553476e-01  1.2900370816801305e+00  1.4603366754735114e+00  8.1876988178807619e-01  3.0777495292765616e-01  1.3679636799653045e+00  1.2470214827056085e+00  3.0811979499268677e-01  2.9270422970452870e-01  1.2302059850848812e+00  1.1657100180754814e+00  1.4127481014778918e+00  1.4138510850024091e+00  1.0340674358683333e+00  1.1539149770498196e+00  1.4570965482080624e+00  1.3855435324909571e+00  1.4496580298485711e+00  8.6219072080699044e-01  8.5549361638082944e-01  1.1383232715475842e+00  1.4581403828417470e+00  1.4660708702678260e+00  9.3708459981035763e-01  2.8448134418974319e-01  2.5714566099110875e-01  1.1868659425198282e+00  1.4182472491554596e+00  9.2749982223375738e-01  7.7872021550434267e-01  1.3999373927392820e+00  8.0988799146742840e-01  1.4651393802491066e+00  1.3446612319278826e+00  5.7055752934529713e-01  2.7432185218188737e-01  2.5686761707017125e-01  6.7469449421228567e-01  1.4201049984800673e+00  1.2333649773166466e+00  1.2729071229560209e+00  1.3359789979810754e+00  5.6095354020907306e-01  3.0020781892375414e-01  1.4326034137542127e+00  1.4654511538434829e+00  2.2919832829288747e-01  6.9826179575287795e-01  1.3456438976599940e+00  1.1341333894914216e+00  1.0637464973503217e+00  1.2251176573355760e+00  1.3508610129587009e+00  3.9922331023118901e-01  4.1016489786168919e-01  1.0685664302628808e+00  8.9691415448196032e-01  1.1472716344139131e+00  1.0559899779855204e+00  1.3704899766280714e+00  7.3639176523702743e-01  6.7889584560004534e-01  5.7275772946864933e-01  3.0685013086646729e-01  5.0371622260367876e-01  7.2653708091608260e-01  7.3662496533525357e-01  1.1717962624639615e+00  2.4111320337636047e-01  3.2543334851342937e-01  5.7017517371703463e-01  7.0830114993749960e-01  2.4612747923661585e-01  3.0209203620058450e-01  8.5357018030513976e-01  8.4939975265457368e-01  4.7208215488598904e-01  7.8511390439933437e-01  9.8003549473139362e-01  1.0300540803343037e+00  9.5388763848915825e-01  1.4174406793984227e+00  1.4076739669340794e+00  1.4502048488740589e+00  1.1662966311190808e+00  1.0206358737698462e+00  2.0272457706057226e-01  1.0665326317891561e+00  1.2384076652291367e+00  5.8504324438513400e-01  9.1662049697133008e-01  1.1126456243340606e+00  1.0781729363548398e+00  1.2819089256543104e+00  1.3517174273068040e+00  1.4581362140395424e+00  8.3600875576496125e-01  1.4522255157459338e+00  5.8584901663781586e-01  7.6540641591422609e-01  1.4442922914070453e+00  1.3349676620880191e+00  1.1552976478512580e+00  1.9684547747833633e-01  1.4270153833092372e+00  1.4527416828268169e+00  1.3975549196964292e+00  1.1874750347156380e+00  1.4642587258091948e+00  1.2125074535810652e+00  1.0473463373770093e+00  8.3994023109117211e-01  1.8788356142659504e-01  1.4257096320631877e+00  1.4600590039977632e+00  1.4603141306883847e+00  1.4153775905830357e+00  1.4340996105346746e+00  1.9351206064533372e-01  7.4277442202945920e-01  1.9004363147699527e-01  1.3236089423088166e+00  1.8821671849582264e-01  8.5977430142293698e-01  1.4600165601314503e+00  1.8331594254686362e-01  1.2418526067220155e+00  1.0332962358649660e+00  1.0331462761270231e+00  5.0124224612657520e-01  1.3234871353730795e+00  1.4597114052449032e+00  1.4599822117543189e+00  1.4596902044876909e+00  1.8020656205617575e-01  2.2963527636036252e-01  1.8844090229346394e-01  1.4391252892811768e+00  1.3993645605970846e+00  1.0359902327114183e+00  5.9082623300761816e-01  1.8114249697267248e-01  7.9676716299495232e-01  1.2667852740582810e+00  7.6959146399616041e-01  1.4641850991285470e+00  1.4172202538792611e+00  5.5008567887113213e-01  6.8110618593324013e-01  1.4636121002931957e+00  1.4412830681336555e+00  1.2911595407147858e+00  1.3818943834464616e+00  1.8748918291760733e-01  1.3666216447123334e+00  1.2078833605600168e+00  1.2940000155309330e+00  1.3600102011776944e+00  1.2400966456534819e+00  1.4493324421163418e+00  1.3839072739131815e+00  8.2921347112017441e-01  5.4288994296820203e-01  1.3606332890103814e+00  1.3892100525536757e+00  9.6056036561756963e-01  1.2794260024997699e+00  9.5705382185799182e-01  1.4008056398820687e+00  1.4350272757677447e+00  1.4193192514969544e+00  1.3108003072450385e+00  1.4636371455245132e+00  7.5441044744988717e-01  2.8074276513745228e-01  1.3114424433066842e+00  4.1022336566040596e-01  1.3074425918225536e+00  1.1119641071626933e+00  1.2222238385291850e+00  1.2965067598690942e+00  1.0213401911161473e+00  1.3963001945959501e+00  1.3684128156722006e+00  1.2646741274077986e+00  1.1457237934513411e+00  1.4423838594814833e+00  0.0000000000000000e+00  1.4631590285356881e+00  1.4546580068963686e+00  1.1757018711750862e+00  1.1650941834198885e+00  5.6867756498787470e-01  1.4652398876549877e+00  1.4513541315791540e+00  8.7930732594505900e-01  1.1510257077558459e+00  1.3124457879907241e+00  9.2175828751729760e-01  1.0023503928667636e+00  0.0000000000000000e+00  1.3738988003462544e+00  1.8169723648832217e-01  5.2293700360695106e-01  1.4438362756845640e+00  4.6482355973966100e-01  2.2910851491629264e-01  8.8129743347557266e-01  1.2254071564654851e+00  1.2907627414688307e+00  2.0797912178597808e-01  1.0200167074585709e+00  4.6861492654350401e-01  5.9902242697253438e-01  1.2483856899670298e+00  1.4033537713039401e+00  5.9751746392926042e-01  1.4040703704212745e+00  1.8111139265004295e-01  1.3642029726344740e+00  1.2947055011950621e+00  5.7781785160063570e-01  9.3643654101797935e-01  8.2467064342243179e-01  1.4410248111039501e+00  5.5991788668023768e-01  5.8196445044556400e-01  9.3391485486956061e-01  0.0000000000000000e+00  1.3210806420960015e+00  0.0000000000000000e+00  9.6546477927507512e-01  1.2288161272801486e+00  1.2760864205503157e+00  1.0794514848691612e+00  1.4652015027748668e+00  1.4518137970881382e+00  1.3899790718798946e+00  1.1821785190472229e+00  1.3346705180339749e+00  0.0000000000000000e+00  2.1039440792554057e-01  8.9797590191939958e-01  1.7980404225148117e-01  7.1807643297894219e-01  1.1511913324360659e+00  3.9998777590182255e-01  9.9800205975495315e-01  7.7619344952283875e-01  6.2581873687371536e-01  3.1155480408832692e-01  0.0000000000000000e+00  4.6296154179315580e-01  4.6834936520723969e-01  4.9992182208473562e-01  1.4622026194723010e+00  0.0000000000000000e+00  9.6638208292242223e-01  7.8299572943596385e-01  1.4636482600077567e+00  1.3255473312826991e+00  1.4139367107319178e+00  1.3925025856782856e+00  1.3240001000005028e+00  1.4077555966069861e+00  1.4646479008119240e+00  6.7384465590119957e-01  1.0649977742088113e+00  8.3150954599332638e-01  1.0897076507269221e+00  1.4453482617935800e+00  1.4520611522388798e+00  0.0000000000000000e+00  9.6128600112615081e-01  2.0598059396598067e-01  2.5074194343178546e-01  1.1398654386720521e+00  1.1926343599054219e+00  1.3799013822184745e+00  2.3560584376186108e-01  7.2841834188085530e-01  1.4195661302928231e+00  1.2771605377131852e+00  1.3769275640825973e+00  1.1423715656081241e+00  1.4284368493191439e+00  1.4571658621361969e+00  1.1871870303670797e+00  1.8457551107390263e-01  1.9833632217900476e-01  2.0265558916531878e-01  1.4016023145965235e+00  5.3612089482099368e-01  1.2631466041127921e+00  1.4460545223847787e+00  1.4237011809292597e+00  1.3893797716653320e+00  9.0015790103993942e-01  1.0859756027191749e+00  4.5050027756846739e-01  1.9186753661649522e-01  1.4307404467744047e+00  1.1878983235293992e+00  1.2546177192712213e+00  1.3663404005447446e+00  1.3618564633127195e+00  1.3564609945013584e+00  1.1463401140979936e+00  1.1029406053350856e+00  1.2495772117204789e+00  1.8118142781551222e-01  0.0000000000000000e+00  1.1113048713021143e+00  1.4455270897446111e+00  1.4491184367479344e+00  1.4027711763821835e+00  5.3686622581339938e-01  2.0294962703008984e-01  1.4652465153847773e+00  6.8532461212154283e-01  7.1652913675268104e-01  1.2588050737196375e+00  1.3056729099512943e+00  6.4888193919655079e-01  5.2547155516355204e-01  7.8281043641741277e-01  8.1783178325881456e-01  1.4543694180992943e+00  6.1143131201477774e-01  8.0377086889187876e-01  8.1418592029814596e-01  1.3334149679151348e+00  9.4376188600602640e-01  9.6659661300795441e-01  1.3697060786348287e+00  1.3239883407680184e+00  7.3681542950918844e-01  1.1547991975212581e+00  3.6956440452089290e-01  1.0965146793342555e+00  1.4184935990544139e+00  1.9361947630785095e-01  4.3571573111960588e-01  1.4631827948877880e+00  4.6031892869446944e-01  5.5833943589249668e-01  4.4064806678031837e-01  8.6342812159091498e-01  1.2987404987922926e+00  1.4655653416924130e+00  5.4243949271500880e-01  1.3503368441354484e+00  1.3937029573153583e+00  1.0630701961797182e+00  1.0549754067255601e+00  6.2177519498292333e-01  1.0128919030361128e+00  1.0066879268819091e+00  1.3757585380372899e+00  1.4046035862848674e+00  1.2234864131979775e+00  1.4649721037176080e+00  8.8171565032766741e-01  1.4421361957228638e+00  1.3504718301287097e+00  4.6174345373791420e-01  1.2914528332588975e+00  7.6253670448190569e-01  1.4549523000007611e+00  8.2418643325005247e-01  1.9100613965778432e-01  3.9175559665351345e-01  5.1019283443447982e-01  6.5652137304451530e-01  1.4405862804766192e+00  1.4144903020657265e+00  1.4341417664308242e+00  9.8995001188720499e-01  1.3630079198577301e+00  1.3236742774653052e+00  1.2050237605649452e+00  1.2391334783212113e+00  1.4594815967231480e+00  0.0000000000000000e+00  1.0592973736078022e+00  9.3729240431579830e-01  7.2596830761856113e-01  6.0949894336974642e-01  8.6271091287593160e-01  7.5683573354037026e-01  1.4643085861476302e+00  5.6479938730566559e-01  1.2898382916338158e+00  9.0809788782146006e-01  9.8310098920204758e-01  1.1368756360544368e+00  0.0000000000000000e+00  5.0394892735792385e-01  4.7822555856601001e-01  7.7926388319128792e-01  7.2583797652890836e-01  7.7252952313975642e-01  1.2326489701802454e+00  1.1467771197884462e+00  1.3269467221874092e+00  1.3665476833707639e+00  7.5999844431790020e-01  0.0000000000000000e+00  1.8214233477977412e-01  4.2640395063909325e-01  1.4465601409485978e+00  5.4325029284909465e-01  1.0330916822680793e+00  1.4230058793818707e+00  1.4559716274698962e+00  7.4299675637580886e-01  1.0952920750779627e+00  8.2229746152788263e-01  2.8901177306556147e-01  1.3899242771983060e+00  1.3078017631178525e+00  1.4601162209996434e+00  1.4648441109172305e+00  2.5208273537716158e-01  7.8043389130715701e-01  1.9068087253115645e-01  1.4657855214471562e+00  2.4688701976779082e-01  1.3738011388469435e+00  1.0062353105334960e+00  7.7917568720040231e-01  0.0000000000000000e+00  0.0000000000000000e+00  0.0000000000000000e+00  1.8013014420728721e-01  0.0000000000000000e+00  0.0000000000000000e+00  1.3240643776045975e+00  5.0442544343431706e-01  0.0000000000000000e+00  0.0000000000000000e+00  1.3238181682836663e+00  0.0000000000000000e+00  0.0000000000000000e+00  1.4598728214951691e+00  1.4596106495246355e+00  1.4144801417122466e+00  1.4144716023785460e+00  1.4598832845858529e+00  1.4600750005662333e+00  0.0000000000000000e+00  1.1878726941870668e+00  0.0000000000000000e+00  0.0000000000000000e+00  1.0059998144803084e+00  0.0000000000000000e+00  0.0000000000000000e+00  5.0388983686980782e-01  0.0000000000000000e+00  0.0000000000000000e+00  7.7911977259411480e-01  0.0000000000000000e+00  5.0401570874429857e-01  1.8116338537192819e-01  0.0000000000000000e+00  1.4146696849361069e+00  0.0000000000000000e+00  1.0063925635272555e+00  0.0000000000000000e+00  1.1876990844961528e+00  7.7896191483542632e-01  1.0846064039761720e+00  1.2224991563714009e+00  4.2747893448343377e-01  1.1034583478218403e+00  1.0861098069348529e+00  1.2462987335543090e+00  1.2453452158044800e+00  1.1749007733939152e+00  1.0259223596068658e+00  1.0022824915473001e+00  1.2217993839103192e+00  1.5628615094127665e-01  1.0573704942425477e+00  9.1093197739782827e-01  1.1617350094276169e+00  1.4146538255297800e+00  1.3340814901066484e+00  1.3780717864470737e+00  1.4588454453918398e+00  1.5782117721265321e-01  9.9495962393961712e-01  1.1720718630331695e+00  1.4484083390580618e+00  1.4655838989857843e+00  1.2444468830239539e+00  1.4585126357113258e+00  1.4417706643150265e+00  1.3919633430195901e+00  1.2353597286312115e+00  1.4599528373984214e+00  1.3823220363001898e+00  1.0866423978793287e+00  1.4302294638796427e+00  1.4545517237962597e+00  7.8800637047034283e-01  1.4196881298818791e+00  1.3566763505909507e+00  1.2172236624131181e+00  1.3275954660109224e+00  1.4368785861816691e+00  1.1334577383170530e+00  9.6195940696478921e-01  1.4601699311107375e+00  9.5079509304783072e-01  1.2947508131935832e+00  1.3298277149901840e+00  1.4493007076334066e+00  7.4710280716696909e-01  1.4289848874185420e+00  1.4516969879879464e+00  1.4615196878208896e+00  1.4432457495919844e+00  1.1965557715059201e+00  1.2878475541992451e+00  1.1958620973287246e+00  1.0559204350218196e+00  1.1027523592522086e+00  4.4877621256381472e-01  1.2542397423103258e+00  1.1940652003608028e+00  1.3616997558786184e+00  4.5430695160883805e-01  3.4684418061911032e-01  1.0598772395062119e+00  1.1505897922801986e+00  1.3628605542762304e+00  4.9580954225992246e-01  8.4511863698486145e-01  1.3574825774400598e+00  1.3199272010868568e+00  1.2531129218735793e+00  4.9306774385597790e-01  7.4973648469536314e-01  6.3871269788795859e-01  4.3357481839114581e-01  1.4334172928582853e+00  1.0193168154332575e+00  1.2123711806344666e+00  1.3770173902232130e+00  1.0778204972215859e+00  1.1353831642503864e+00  1.2929631732402924e+00  1.5004250299594671e-01  1.4522622567588841e+00  1.4333078247739857e+00  1.4644714338491134e+00  1.4569306393460291e+00  1.3410821999737290e+00  1.2489695733905226e+00  3.7331637661360562e-01  1.4626782879528777e+00  1.2820973090065619e+00  1.3572120509670338e+00  7.8474279695348548e-01  6.2996227147164341e-01  9.7012412703554629e-01  4.6513785363451621e-01  6.0252147147012791e-01  6.3181892522415384e-01  1.2104329055842786e+00  4.9123770304072051e-01  1.7019160351013585e-01  1.4315756174310781e+00  1.8077166523038402e-01  1.2292022775921345e+00  1.4635798314191908e+00  9.6237535243777961e-01  8.9999627456010733e-01  1.2821404322887779e+00  1.4542859722875328e+00  8.8426934864296791e-01  1.4289153927097986e+00  1.6185259430492321e-01  3.7020200174041717e-01  2.5987894893347485e-01  9.6244642821462023e-01  8.9018594632737758e-01  1.0027162094704569e+00  1.5059652549586336e-01  7.7700248007170158e-01  1.1698504922327697e+00  3.3463797049931249e-01  1.4109350692038645e+00  1.7475408357762207e-01  4.8036842318054296e-01  6.9280982423008197e-01  5.9954945848474939e-01  4.5625742792321866e-01  1.3301648381923170e+00  1.11617