<?xml version="1.0"?>
<VTKFile type="UnstructuredGrid"  version="0.1"  >
<UnstructuredGrid>
<Piece  NumberOfPoints="2513" NumberOfCells="4852">
<Points>
<DataArray  type="Float64"  NumberOfComponents="3"  format="ascii">-1 1 0  -1 -1 0  1 -1 0  1 1 0  0 -1 0  1 0 0  0 1 0  -1 0 0  0 0 0  -1 -0.5 0  -0.5 -1 0  -0.5 1 0  -1 0.5 0  1 -0.5 0  0.5 -1 0  1 0.5 0  0.5 1 0  0.4166666666666666 -0.4166666666666667 0  -0.4166666666666667 0.4166666666666667 0  -0.25 -0.5 0  0.5 0.25 0  -0.4861111111111112 -0.06944444444444445 0  0.0732758620689655 0.507183908045977 0  -0.625 -0.625 0  0.625 0.625 0  0.7380952380952381 -0.25 0  -0.7099116161616161 0.2105429292929293 0  -0.25 0.7380952380952381 0  0.105392156862745 -0.6348039215686275 0  0.6770833333333334 -0.6770833333333333 0  -0.6770833333333334 0.6770833333333334 0  0.3472222222222222 -0.06944444444444446 0  -0.7264957264957265 -0.3044871794871795 0  0.3141940982507127 0.7297313660835709 0  0.02049587951122483 -0.3227479397556124 0  -0.2690972222222223 0.1475694444444444 0  0.3859500089908372 -0.7274430156831472 0  -0.2228477945123298 -0.1761765495248019 0  0.2182539682539683 0.1884920634920635 0  0.75 0.375 0  -0.145442219440968 -0.7602211097204841 0  0.7088913690476191 0.0427827380952381 0  -0.75 -1 0  -1 -0.75 0  1 0.75 0  0.75 1 0  -0.7439982703698937 -0.04614153195464455 0  -0.4609235096577606 -0.3356498099556895 0  0.4063134471431929 0.4895621842856023 0  0.25 -1 0  -0.25 -1 0  -0.75 1 0  0.75 -1 0  -1 -0.25 0  -1 0.25 0  1 -0.25 0  -0.25 1 0  1 -0.75 0  -1 0.75 0  0.25 1 0  1 0.25 0  -0.4041423272138783 -0.7597141090712928 0  0.06500839607911253 0.7578103030529481 0  -0.1572801182352047 0.3838997021864289 0  -0.6528005242053915 0.4409494757946086 0  -0.4930160984848485 0.1544744318181818 0  -0.4732142857142858 0.7752976190476191 0  0.6398809523809523 -0.4538690476190476 0  0.5166054117396399 -0.2161233620965164 0  -0.002273787244753427 0.2232363985975174 0  0.1500564496765022 -0.1524955293952667 0  0.2016720420046758 -0.4410343282803009 0  -0.08495178036419618 0.6274139771124571 0  -0.8367311471133162 0.3642591720794645 0  -0.8333333333333334 -0.625 0  -0.594323836800685 -0.8231079456002283 0  -0.4466957714776065 -0.5349126855671806 0  0.8125 0.5625 0  0.78125 0.78125 0  0.5091392650016769 0.7947130883338923 0  0.125 -0.8382681931833136 0  -0.8184523809523809 -0.8184523809523809 0  -0.07781530426104531 -0.5819319697006881 0  0.5085055196703295 0.04967610411902112 0  0.2918471072074933 -0.276017202318847 0  0.5120763537765269 -0.5898771553229597 0  0.625 -0.8585349462365591 0  0.8158532234335381 -0.8158532234335381 0  -0.5198088446315396 0.5739411553684605 0  -0.8585349462365591 0.625 0  -0.8150493805516597 0.8156205699829586 0  0.8585349462365591 -0.625 0  -0.2688268348649726 0.5439331383603209 0  0.8242100426758139 -0.4436043596336612 0  0.5833756314287952 0.4479378157143976 0  0.8690476190476191 -0.125 0  -0.125 0.8690476190476191 0  -0.8692745600729823 0.125 0  0.8696725120759167 0.125 0  -0.625 0.8711516477451908 0  0.2339522463269718 0.3879558377955778 0  0.2453709502295031 0.5655822922838026 0  0.1730610651637797 0.02021709580868947 0  0.3245402594056757 -0.5644672020485209 0  -0.7291666666666666 -0.4816595441595442 0  -1 -0.375 0  -0.5811140848639904 -0.2127276307675001 0  0.673332592838314 0.2158348143233718 0  0.375 1 0  -0.5714768890989919 0.2985103444040069 0  -1 -0.125 0  -0.8453692574786325 -0.1875 0  -0.3144549134065865 -0.02408675326008025 0  -0.2898414972096258 -0.3336092734780093 0  -0.1075052092206287 -0.4224330421314983 0  -0.05043970703604117 -0.1652278959397459 0  0.6459672950297897 -0.1113415301525317 0  0.4645210271029513 0.6398480556579343 0  0.3512863754411909 0.0937979496253573 0  -0.6063160985568274 0.03891469652249891 0  -0.3428819444444445 0.8690476190476191 0  0.625 1 0  -0.1602164796159982 0.02697860906625157 0  0.04648110064133829 -0.4808416424239687 0  1 0.875 0  -0.3836102479201657 0.6484936449177356 0  -0.3776011723096096 0.263078478984336 0  -0.6024978259969829 -0.3949628096211138 0  0.125 1 0  0.2010781308272777 0.8456221018461906 0  0.2822509696388829 -0.845902544691141 0  -0.3285533674953515 -0.6289773550938936 0  0.3461306793221754 0.278777492464833 0  0.4737475672408696 -0.8508448959534423 0  0.2384632828836344 -0.7029523187242811 0  -0.004777287059791593 0.3759269695907358 0  -0.8499735021850066 -0.3912320205328522 0  0.1222536293721587 0.2963971539625205 0  -0.3769456520999688 -0.203572526805711 0  -0.2749617205755651 -0.8464290792698902 0  0.004805888512766143 -0.747174355248311 0  -0.125 -1 0  -0.06001061822252458 -0.8724007765244854 0  0.875 0.4375 0  0.854421179608893 0.271342359217786 0  0.875 1 0  -0.1499861095763589 0.2358309656934888 0  0.3381943639137225 0.8663061796405532 0  -0.7853090110442228 0.4998412775277108 0  0.7398165998560814 -0.5535192694951373 0  0.1580042122341573 -0.3100246140259917 0  -0.7291666666666667 -0.7142857142857142 0  -0.375 -1 0  0.6483368386154684 0.8514905990110488 0  -0.1295370103291928 -0.2826118305021242 0  0.07458201853700455 0.1123894386563915 0  0.6146465857036327 -0.3161203659316075 0  0.5551898493894731 -0.740296118159085 0  0.375 -1 0  0.482702798370208 -0.084133350091034 0  0.87890625 0.68359375 0  -0.05917195534525846 0.4971092425697621 0  0.1260710309213975 0.6343750312956699 0  0.8690476190476191 -0.3077066815262848 0  -0.2912010232560567 0.3668168386732139 0  -0.875 1 0  -1 0.875 0  1 -0.875 0  0.875 -1 0  -0.8689564281364567 -0.006189266075306407 0  -0.7449425635110547 0.08458938160051771 0  -0.7150266761936593 -0.1739444581417552 0  -0.5260034831318311 -0.711099823962112 0  -0.4724626808827322 -0.871722230709409 0  0.4734436795977052 0.377714794132168 0  -0.875 -1 0  -1 -0.875 0  0.6927189078571988 0.5156567235715964 0  -0.3742497615796874 -0.4296005251260107 0  -0.1969436423297711 -0.6387157229772615 0  -0.6179496409766825 -0.08933356056510935 0  -0.424405057115988 0.04452428810878029 0  -0.08479048335844169 0.1279607007132633 0  0.003830300099055113 0.8712085230656206 0  0.8748778838820267 -1.379218479898026e-05 0  -0.375 1 0  -0.625 1 0  1 0.125 0  -0.125 1 0  1 -0.375 0  1 -0.125 0  1 -0.625 0  0.625 -1 0  0.125 -1 0  -0.625 -1 0  -1 -0.625 0  -1 0.125 0  -1 0.375 0  -1 0.625 0  1 0.375 0  1 0.625 0  0.6325660748712082 0.3335187599557389 0  -0.06420945895056573 0.7549874027425891 0  -0.8769015540914771 0.2478802253893416 0  0.871875 0.871875 0  -0.6868091492840067 0.3270978624973681 0  -0.5363597469565949 0.412994850055505 0  -0.6803734992638302 0.5574295000651103 0  -0.7076253581162534 -0.8803439094224437 0  -0.8778089002295137 -0.5106896447504627 0  -0.3860184984222981 0.530566778071246 0  0.6109900617121508 0.1128453077697081 0  0.3896945134930274 -0.1915382873255086 0  0.7605656944697778 -0.06822134873122943 0  0.3576151269893478 0.5948388411612135 0  -0.5689902680792265 -0.5143596830118065 0  0.6262446286847614 -0.5735657901943212 0  0.2030558252325225 -0.5625263842513452 0  0.6123273142928579 0.7407533260723429 0  0.4016460890123554 -0.3042863223111857 0  -0.59039693199147 0.7578418819188018 0  0.7276932493917544 -0.3705808024528924 0  0.5222536818742854 -0.4713886230400014 0  -0.5101986527137737 0.8848365765607674 0  0.510560172809238 0.5356013299918891 0  -0.3603569195756083 0.75823710606415 0  0.1967279277813232 0.728226870058472 0  -0.6086880986371127 0.1545624071548516 0  -0.38105366729386 0.1511189987807864 0  -0.2944659463671584 -0.7359061804869591 0  0.5060729154966499 -0.3475227845833823 0  -0.09281616240412746 -0.06197858250969457 0  0.7649739583333334 0.6673177083333334 0  0.7628906249999999 0.890234375 0  -0.2666864184909611 0.2585504071132311 0  0.3635064892129658 0.3878003602709461 0  -0.2339409722222222 0.8901937905844155 0  -0.1718792125974916 -0.8957733325456778 0  0.1001768566329531 0.4023510017391879 0  0.3120260172693757 -0.4540546875576884 0  0.7804062804433681 0.1896628610854537 0  0.4087715451998049 0.187961780041608 0  -0.1584963477271457 0.5451611892421655 0  -0.8926817849258324 0.463022006336401 0  0.2338091473445219 -0.07576267331277289 0  0.08171112182813692 -0.2349087687359925 0  0.04635385178956847 -0.1044635073718474 0  -0.4377391632114205 -0.6448874471423088 0  -0.1907678351227189 0.6480215912813945 0  0.300605946475244 0.4741444604171038 0  -0.2145033720757486 -0.06751709909419711 0  0.6069191921170397 -0.005492331448357812 0  0.0214718770761248 0.6032397936031719 0  0.5476675683364878 0.8992752415326501 0  0.4387475014316537 0.9093708953002239 0  -0.4932997685306436 -0.4381009159993523 0  0.2515197695339056 -0.1791673369138964 0  -0.7291666666666667 -0.6088789682539681 0  -0.9166666666666667 -0.6875 0  0.620579540363709 -0.2122431523583302 0  -0.484950136419973 0.6719440339397442 0  0.2857044415400258 0.0137589173127316 0  -0.8945708364098356 -0.288306105327986 0  0.4043102720140535 0.7842914560451557 0  0.04123256238752064 -0.9026968245801402 0  0.2003676884403109 -0.9091888601740487 0  0.1068775558538842 -0.7373377130403223 0  -0.4804566783514427 -0.1763307203045643 0  0.108286342087769 -0.3993789328997278 0  -0.191883080105361 -0.3640821726430649 0  -0.07025064492006244 0.2984876656890053 0  -0.7039324641409584 0.788312126296613 0  -0.7311286585775438 0.8932502354831682 0  0.5171409396884947 0.1503852691889257 0  0.4229392823658633 -0.003216522184234835 0  -0.5621736087218259 -0.919558629836806 0  -0.626474064879544 -0.7266572613636506 0  0.2446828746617422 0.2867616783302419 0  0.1759429608742923 0.4776611759306416 0  -0.3468240303741654 -0.5260416435617549 0  -0.7465808808425306 0.4069574477998361 0  -0.7819962170660292 0.2802441065650652 0  -0.3742623214119594 -0.8547800509641984 0  0.1014498009713561 0.8506721983266377 0  0.4285217620918213 -0.5230190595570253 0  0.4091738370487775 -0.6256346204225141 0  0.78125 0.46875 0  0.90625 0.53125 0  -0.4791801348852565 0.2553992655702126 0  0.7843318610782772 -0.7086046956885941 0  0.8909728264971901 -0.7355183796514634 0  0.7041908166528879 -0.7830649143180282 0  0.7311821352
[...]
<PointData  Scalars="velocity-2"> 
<DataArray  type="Float64"  Name="velocity-2"  format="ascii">0.0000000000000000e+00  0.0000000000000000e+00  0.0000000000000000e+00  0.0000000000000000e+00  0.0000000000000000e+00  1.5142372671365874e+00  0.0000000000000000e+00  1.5141855446346877e+00  1.5130342967192854e+00  1.1341223242728196e+00  0.0000000000000000e+00  0.0000000000000000e+00  1.1334780845306265e+00  1.1342672910245510e+00  0.0000000000000000e+00  1.1338675702619592e+00  0.0000000000000000e+00  1.2502059176564857e+00  1.2500055932862468e+00  1.1347027813016144e+00  1.4186936092455513e+00  1.5067533325525218e+00  1.1224920561646055e+00  9.2008524707562478e-01  9.2038964980276372e-01  1.4190702810191560e+00  1.4462078581784323e+00  6.8650289203614168e-01  9.0147656239250940e-01  8.1755180236186364e-01  8.1788460367376992e-01  1.5062554848832597e+00  1.3731720886070715e+00  7.0546646580853745e-01  1.3552065468087329e+00  1.4807591032800957e+00  7.1038195129670156e-01  1.4655108059885154e+00  1.4593861835055837e+00  1.2993343136483622e+00  6.3638226565548650e-01  1.5109700440913445e+00  0.0000000000000000e+00  6.6047951179026398e-01  6.6072431392319231e-01  0.0000000000000000e+00  1.5109025339464552e+00  1.3416433031803705e+00  1.1488961366976123e+00  0.0000000000000000e+00  0.0000000000000000e+00  0.0000000000000000e+00  0.0000000000000000e+00  1.4190210893798354e+00  1.4190744794918071e+00  1.4189640158030197e+00  0.0000000000000000e+00  6.6052782831147172e-01  6.6046461058501527e-01  0.0000000000000000e+00  1.4192796859876815e+00  6.3820320422619614e-01  6.4223525079797317e-01  1.2897565576336907e+00  1.2180907786078279e+00  1.4769238693363536e+00  6.0197910681696021e-01  1.2001501490677700e+00  1.4434700848442654e+00  1.4381259646981295e+00  1.4780582262031068e+00  1.2180936220587957e+00  9.1556233851673319e-01  1.3123170181887718e+00  9.2048737708365058e-01  4.8618940252910181e-01  1.0792362234481836e+00  1.0330759797849032e+00  5.8776549046111792e-01  5.5543307342263659e-01  4.4811381980997644e-01  4.9852844423553977e-01  9.9915680545365848e-01  1.5100189989545103e+00  1.3978310089070183e+00  9.8466670694879499e-01  3.9653938080421702e-01  5.0488093683316981e-01  1.0127016803158739e+00  9.2030043642203418e-01  5.0505280797268770e-01  9.2060583693515441e-01  1.0645126046135815e+00  1.2147175556080223e+00  1.2082071974473949e+00  1.4898535969568367e+00  3.6887919091312671e-01  1.4903622549298265e+00  1.4900359271639319e+00  3.6341920697630087e-01  1.2847533652469116e+00  1.0275873715466641e+00  1.5134054810899411e+00  1.0294281480185259e+00  1.1613373918097303e+00  1.3003607241251818e+00  1.4457787281999528e+00  1.4428775442543453e+00  0.0000000000000000e+00  1.3777320334114451e+00  1.4905367315688944e+00  1.4601411928561785e+00  1.5120837601960988e+00  1.3447353077021125e+00  1.2422249503927145e+00  1.4726653824535734e+00  1.4947195835346569e+00  8.9191605392890971e-01  1.5003859632925187e+00  1.5114620183117322e+00  3.6844694094845831e-01  0.0000000000000000e+00  1.5136710618211295e+00  1.1618855494522404e+00  3.5368386724115236e-01  8.7504647851573991e-01  1.4078231883951560e+00  1.2769397292650662e+00  0.0000000000000000e+00  4.2986435314676941e-01  4.2869166958005184e-01  9.1299723160759561e-01  1.3956926280984201e+00  4.1648330182567239e-01  7.6298876916984659e-01  1.2990803229885690e+00  1.2809504761980512e+00  1.3803879625102871e+00  1.4500390233134226e+00  4.2789450757781494e-01  6.6654792275806052e-01  0.0000000000000000e+00  3.6009868237913184e-01  1.2229136554165998e+00  1.4020462524913326e+00  0.0000000000000000e+00  1.4294133458686005e+00  3.7631859399100875e-01  1.1342895904187325e+00  1.0477847678891108e+00  1.3676526387432111e+00  7.3934673082846070e-01  0.0000000000000000e+00  4.1383795761833159e-01  1.3923752467462835e+00  1.4944836320600918e+00  1.3620613598955549e+00  6.8174125134970576e-01  0.0000000000000000e+00  1.5027015641741588e+00  8.0430616096155283e-01  1.1383187334146156e+00  9.0233518018330106e-01  1.3698805970621899e+00  1.3092574139080482e+00  0.0000000000000000e+00  3.5423440266437245e-01  3.5370412680369367e-01  0.0000000000000000e+00  1.5138786783183236e+00  1.5019987412423099e+00  1.4674049020721491e+00  7.4541390927054296e-01  3.6215777220622142e-01  1.2958500616945658e+00  0.0000000000000000e+00  3.5379201730148896e-01  1.1099219060805074e+00  1.2333626656894294e+00  8.9415794536631754e-01  1.5018612957107476e+00  1.5104242012786473e+00  1.4887075128065375e+00  3.6403250039358442e-01  1.5136842552006298e+00  0.0000000000000000e+00  0.0000000000000000e+00  1.4906643813343505e+00  0.0000000000000000e+00  1.3002608877693611e+00  1.4905367332223305e+00  9.2033754292539516e-01  0.0000000000000000e+00  0.0000000000000000e+00  0.0000000000000000e+00  9.2047101475545445e-01  1.4902776491207506e+00  1.3001200292459203e+00  9.2082568622630212e-01  1.3005081682294581e+00  9.2057675206817757e-01  1.3447881197926441e+00  6.4876262094108594e-01  1.4206491985457748e+00  3.6110592154527194e-01  1.3512502663179469e+00  1.2545055570677719e+00  1.0415406852746574e+00  3.4020144771715399e-01  1.1175038986892523e+00  1.0855736521408241e+00  1.4943340257026401e+00  1.4581734425700343e+00  1.5066456439731697e+00  9.7575827773411694e-01  1.1117753535245432e+00  1.0134387516184025e+00  1.0325625035717647e+00  6.8106468182168034e-01  1.3730713546224116e+00  6.4231148858873210e-01  1.3046320302326095e+00  1.1764961344740108e+00  3.2777599383566935e-01  1.0774436886132177e+00  6.4182628452623869e-01  7.0907979437743585e-01  1.4771058677440587e+00  1.4790527176772310e+00  6.9175544038524850e-01  1.3302452306710122e+00  1.5082382268604182e+00  8.3748483402739204e-01  3.1267551816129019e-01  1.4117683562544703e+00  1.2852012185112058e+00  3.1288413996428704e-01  2.9731986317457448e-01  1.2675861565123610e+00  1.1999749796674692e+00  1.4586200645726437e+00  1.4598079259300540e+00  1.0621222721180628e+00  1.1876306012480529e+00  1.5051006550002535e+00  1.4302334851043585e+00  1.4972341358420862e+00  8.8269788693854323e-01  8.7572794559022860e-01  1.1714505867680571e+00  1.5062434124287056e+00  1.5144586063538130e+00  9.6082294017287984e-01  2.8887395211868688e-01  2.6105358564491177e-01  1.2221127754465921e+00  1.4643677414312994e+00  9.5084964991074439e-01  7.9593970084325982e-01  1.4451195269106676e+00  8.2818325405171644e-01  1.5133477951056007e+00  1.3874261041800977e+00  5.8101980874801129e-01  2.7860918340254670e-01  2.6085925988347863e-01  6.8820132305140924e-01  1.4663358037267014e+00  1.2708020049281190e+00  1.3123969619182816e+00  1.3782445487038033e+00  5.7115490559005699e-01  3.0491418161405048e-01  1.4793693538593893e+00  1.5135498452903504e+00  2.3266482398161095e-01  7.1258123898244119e-01  1.3884781484643014e+00  1.1669920177139004e+00  1.0931784553684356e+00  1.2622575504443894e+00  1.3938466342513722e+00  4.0579749646893315e-01  4.1682364812134148e-01  1.0983458111060411e+00  9.1891360401982958e-01  1.1807354405354773e+00  1.0851810920584379e+00  1.4146028933602899e+00  7.5199315299007674e-01  6.9255280956833687e-01  5.8329662622333478e-01  3.1162687792057187e-01  5.1250910682164852e-01  7.4185771993343474e-01  7.5231315234790408e-01  1.2063936172859320e+00  2.4477578123439184e-01  3.3050255585637611e-01  5.8066559232837733e-01  7.2303846408388850e-01  2.4984220536514415e-01  3.0679662827268966e-01  8.7367356197779722e-01  8.6937797365996772e-01  4.8023962743767706e-01  8.0257836416233930e-01  1.0055857570599678e+00  1.0580633481027306e+00  9.7830604038483893e-01  1.4635217202977029e+00  1.4532775573815371e+00  1.4979009677538477e+00  1.2006498989268386e+00  1.0481083143101917e+00  2.0580559097475729e-01  1.0961394733796093e+00  1.2761353591690592e+00  5.9596139720455177e-01  9.3947845930557949e-01  1.1444377939652122e+00  1.1083003799190416e+00  1.3215673023828975e+00  1.3948610047789696e+00  1.5063476507838043e+00  8.5545309319484641e-01  1.4996215865578622e+00  5.9676222696830727e-01  7.8206791263277231e-01  1.4917619010852656e+00  1.3774201603539988e+00  1.1892037936888804e+00  1.9979735228919646e-01  1.4735896557799464e+00  1.5005265776558492e+00  1.4428287929352301e+00  1.2228534427231508e+00  1.5127731637166908e+00  1.2489382460313141e+00  1.0759698462833518e+00  8.5933816092605309e-01  1.9064075403162517e-01  1.4722436796647946e+00  1.5082458703470298e+00  1.5085150467341899e+00  1.4614386680219245e+00  1.4810351398555641e+00  1.9632777125461212e-01  7.5856761966784481e-01  1.9290927068305902e-01  1.3654802942057531e+00  1.9100395401975190e-01  8.8016168554753915e-01  1.5082168075004885e+00  1.8607902523000944e-01  1.2798099628104349e+00  1.0615452884409986e+00  1.0613605975839167e+00  5.0998702323670198e-01  1.3652366474675954e+00  1.5078535653664720e+00  1.5081362868751236e+00  1.5078970569009471e+00  1.8280628720590819e-01  2.3308730916358877e-01  1.9124464504938227e-01  1.4863192549997846e+00  1.4446804212697142e+00  1.0640972141915876e+00  6.0185376111907385e-01  1.8389207213282710e-01  8.1468103035340478e-01  1.3059032238048236e+00  7.8634846012621618e-01  1.5125334787408318e+00  1.4634442253618150e+00  5.6004507401872972e-01  6.9502290391108967e-01  1.5120967273376174e+00  1.4884741265800914e+00  1.3314280994475107e+00  1.4262581964904966e+00  1.9018602729651718e-01  1.4103806411947206e+00  1.2442136748140142e+00  1.3343049487938139e+00  1.4035618841861428e+00  1.2779234015105003e+00  1.4968798408349038e+00  1.4286520051357636e+00  8.4838773918638655e-01  5.5270457982840626e-01  1.4041209746410324e+00  1.4341097147317292e+00  9.8540498803089671e-01  1.3191436053038177e+00  9.8170574384279419e-01  1.4461761991753768e+00  1.4818899422203209e+00  1.4654947151573965e+00  1.3520711710193201e+00  1.5119824411995715e+00  7.7066375143972343e-01  2.8499042251930901e-01  1.3525690198580496e+00  4.1707915743474527e-01  1.3484527450476094e+00  1.1438394871709929e+00  1.2591952874465095e+00  1.3370862033800037e+00  1.0489064273377395e+00  1.4415703976804026e+00  1.4122869601859365e+00  1.3037232594822437e+00  1.1791839623987606e+00  1.4896912529948718e+00  0.0000000000000000e+00  1.5113659791759861e+00  1.5025699912549932e+00  1.2106658615468981e+00  1.1993371294718980e+00  5.7915573236763651e-01  1.5136084294409400e+00  1.4990552750818120e+00  9.0063043559152078e-01  1.1845993426058719e+00  1.3537318896298154e+00  9.4466256120797865e-01  1.0290332864537441e+00  0.0000000000000000e+00  1.4179060864230377e+00  1.8442281046324915e-01  5.3210756115295044e-01  1.4910233043603782e+00  4.7274679760498817e-01  2.3263570329030875e-01  9.0255424977086307e-01  1.2623913190231533e+00  1.3310421082220618e+00  2.1112388461414436e-01  1.0476157213839734e+00  4.7656568659257309e-01  6.1027331062441514e-01  1.2865955409836665e+00  1.4488419908075743e+00  6.0883200991704578e-01  1.4496035486527477e+00  1.8386041638953840e-01  1.4078437313827645e+00  1.3352374446220208e+00  5.8860592327961303e-01  9.6007347136839138e-01  8.4362520168464628e-01  1.4882913741883357e+00  5.7006850605650128e-01  5.9270385668331105e-01  9.5751458464701178e-01  0.0000000000000000e+00  1.3628818339765720e+00  0.0000000000000000e+00  9.9043717763455152e-01  1.2661182171082634e+00  1.3156355394799137e+00  1.1097581671960524e+00  1.5136688914055345e+00  1.4995831472708141e+00  1.4348938447630128e+00  1.2172168485256036e+00  1.3768493562267337e+00  0.0000000000000000e+00  2.1351980958984962e-01  9.1988763288834119e-01  1.8248177669258542e-01  7.3301456729456504e-01  1.1849126818671025e+00  4.0665664583870476e-01  1.0245680811927504e+00  7.9325911564882856e-01  6.3784804022904817e-01  3.1641273279831883e-01  0.0000000000000000e+00  4.7067148853778934e-01  4.7638754541646539e-01  5.0868540869456602e-01  1.5106017490765955e+00  0.0000000000000000e+00  9.9141482945789383e-01  8.0020438732422883e-01  1.5120268585669880e+00  1.3674103094235646e+00  1.4600419273307965e+00  1.4374851207398534e+00  1.3657947414910541e+00  1.4534514333171151e+00  1.5129362401670383e+00  6.8718912341793048e-01  1.0945394037631453e+00  8.5088747332113535e-01  1.1204701453919688e+00  1.4926235336001554e+00  1.4995946193230196e+00  0.0000000000000000e+00  9.8605148768469353e-01  2.0906759098361588e-01  2.5464522825564528e-01  1.1728690279657932e+00  1.2282723737902341e+00  1.4242494902069573e+00  2.3922232563818660e-01  7.4400393569803691e-01  1.4657514967251390e+00  1.3167836368874000e+00  1.4209897669710385e+00  1.1756395219344689e+00  1.4751842536003077e+00  1.5052383247407501e+00  1.2225259049637536e+00  1.8740158849682245e-01  2.0129294083006294e-01  2.0572250320579058e-01  1.4471204132676010e+00  5.4570966320676551e-01  1.3019913325385184e+00  1.4934373736887798e+00  1.4699833826667554e+00  1.4340221574029002e+00  9.2226170563408527e-01  1.1165476225164208e+00  4.5807865705959999e-01  1.9474417694757457e-01  1.4774995713136954e+00  1.2232534323028961e+00  1.2932626607999664e+00  1.4099210700939391e+00  1.4052352310293030e+00  1.3998700869901348e+00  1.1798217717957236e+00  1.1344047791804936e+00  1.2879512961707031e+00  1.8384853976153262e-01  0.0000000000000000e+00  1.1432315309922230e+00  1.4929635253530571e+00  1.4968183190474620e+00  1.4480964941082961e+00  5.4650192704300071e-01  2.0596434527246116e-01  1.5135305030698680e+00  6.9923336290121663e-01  7.3143776965240714e-01  1.2975717240149671e+00  1.3464201517387777e+00  6.6166133013143991e-01  5.3473993130481212e-01  8.0006356352640096e-01  8.3659881755111554e-01  1.5023684907664039e+00  6.2313820463363490e-01  8.2195529298030034e-01  8.3286792418773470e-01  1.3755716274876335e+00  9.6789214395734524e-01  9.9153042943681491e-01  1.4136662645457452e+00  1.3657893469334843e+00  7.5249008876145373e-01  1.1885571159996677e+00  3.7547629038414038e-01  1.1276105861422061e+00  1.4647145384816496e+00  1.9648020424558932e-01  4.4303645237243888e-01  1.5114331847534110e+00  4.6805604243214222e-01  5.6846675611748954e-01  4.4809294907301861e-01  8.8399214028741324e-01  1.3392522621063239e+00  1.5140760987294970e+00  5.5210139385739576e-01  1.3933757427803177e+00  1.4387526843184097e+00  1.0925742733896440e+00  1.0839623508142109e+00  6.3374547209680454e-01  1.0399708271052761e+00  1.0335202503364720e+00  1.4199029992408578e+00  1.4500337968183625e+00  1.2606100885369165e+00  1.5133002929417800e+00  9.0307154336574746e-01  1.4894712296476431e+00  1.3934095007375964e+00  4.6960170105078730e-01  1.3316890189383357e+00  7.7906410392266001e-01  1.5030369829895531e+00  8.4314900694990891e-01  1.9388491650063988e-01  3.9816393726879423e-01  5.1922782268329981e-01  6.6958953021754208e-01  1.4879014903620715e+00  1.4605227344787253e+00  1.4809577286999254e+00  1.0159689189384471e+00  1.4066054731185396e+00  1.3652470788080195e+00  1.2413243527443669e+00  1.2769757455864779e+00  1.5076181204682650e+00  0.0000000000000000e+00  1.0887065013281283e+00  9.6100964599503647e-01  7.4114819805011101e-01  6.2094787734980994e-01  8.8325680434616249e-01  7.7313271457314436e-01  1.5127545515842644e+00  5.7540830850069702e-01  1.3300224082490837e+00  9.3042497834587545e-01  1.0089261353794190e+00  1.1698055501475915e+00  0.0000000000000000e+00  5.1274357828395500e-01  4.8637387907456858e-01  7.9646461512638955e-01  7.4101312485073523e-01  7.8932889033235787e-01  1.2699803268166239e+00  1.1801210245533471e+00  1.3689320410976922e+00  1.4102109612021014e+00  7.7652977627238229e-01  0.0000000000000000e+00  1.8486441853659402e-01  4.3357801251051953e-01  1.4940579724391003e+00  5.5306350564760820e-01  1.0611728905098525e+00  1.4693387593466560e+00  1.5039069082320216e+00  7.5886161954501063e-01  1.1261192349755738e+00  8.4121483441601308e-01  2.9349809692710865e-01  1.4347597692366372e+00  1.3489026759146909e+00  1.5083123246493750e+00  1.5132671008041358e+00  2.5596937525255031e-01  7.9765582407042468e-01  1.9359809814562978e-01  1.5142409413443947e+00  2.5055891751990750e-01  1.4179833825794050e+00  1.0330676555437108e+00  7.9639337437979241e-01  0.0000000000000000e+00  0.0000000000000000e+00  0.0000000000000000e+00  1.8280293649322552e-01  0.0000000000000000e+00  0.0000000000000000e+00  1.3658697742996817e+00  5.1320647413844012e-01  0.0000000000000000e+00  0.0000000000000000e+00  1.3656125192283746e+00  0.0000000000000000e+00  0.0000000000000000e+00  1.5080107047895630e+00  1.5077540227943957e+00  1.4605244348122042e+00  1.4605099835382032e+00  1.5080272412803821e+00  1.5082288814462637e+00  0.0000000000000000e+00  1.2232409481846780e+00  0.0000000000000000e+00  0.0000000000000000e+00  1.0328278238490272e+00  0.0000000000000000e+00  0.0000000000000000e+00  5.1270946511179549e-01  0.0000000000000000e+00  0.0000000000000000e+00  7.9630133058474784e-01  0.0000000000000000e+00  5.1281711756683235e-01  1.8382805232279573e-01  0.0000000000000000e+00  1.4607194867987081e+00  0.0000000000000000e+00  1.0332479605358666e+00  0.0000000000000000e+00  1.2230864663511558e+00  7.9618630883039943e-01  1.1152096528590638e+00  1.2594299947915502e+00  4.3457308604548806e-01  1.1348987911317336e+00  1.1168046273955239e+00  1.2843325754130395e+00  1.2835952958772390e+00  1.2096944581962656e+00  1.0536743325313067e+00  1.0289332842626389e+00  1.2588368923707807e+00  1.5857159772471113e-01  1.0866478028506801e+00  9.3350588714933935e-01  1.1959279803548317e+00  1.4605861225187211e+00  1.3762957307975694e+00  1.4224503928268653e+00  1.5069685174180563e+00  1.6012874446754408e-01  1.0212552094012997e+00  1.2066805164278838e+00  1.4959740434400368e+00  1.5140126972598253e+00  1.2824458684553259e+00  1.5065180750721048e+00  1.4890493231298807e+00  1.4368662700554737e+00  1.2729512076582681e+00  1.5079930772819299e+00  1.4268280000508227e+00  1.1171027836938336e+00  1.4770138762083307e+00  1.5024881957030036e+00  8.0552310313942876e-01  1.4659623747066166e+00  1.3999348385932917e+00  1.2539163466816752e+00  1.3696420284807120e+00  1.4837806475211595e+00  1.1662411219518012e+00  9.8679404154310491e-01  1.5085076973400702e+00  9.7507911480256027e-01  1.3350494652778622e+00  1.3718485144027506e+00  1.4970671035644985e+00  7.6312575759305523e-01  1.4757410873225265e+00  1.4994162304999812e+00  1.5097290034466539e+00  1.4905978627755809e+00  1.2323694730094328e+00  1.3280151113033531e+00  1.2316638006134102e+00  1.0850432328543018e+00  1.1340219180989306e+00  4.5634103618246258e-01  1.2927086218002699e+00  1.2296448999004395e+00  1.4053460494670935e+00  4.6192669660529939e-01  3.5236777202962782e-01  1.0891253187656798e+00  1.1842104884603128e+00  1.4066376392912991e+00  5.0440722220209244e-01  8.6490543443019019e-01  1.4008996049091214e+00  1.3614660702185886e+00  1.2916314984535269e+00  5.0160654170121044e-01  7.6583261801983848e-01  6.5110995486485423e-01  4.4079928023479670e-01  1.4805398854080314e+00  1.0466903460988779e+00  1.2488468613573738e+00  1.4212510145919346e+00  1.1079990725074036e+00  1.1682862480744116e+00  1.3333075448396083e+00  1.5221859080568717e-01  1.5000476205456823e+00  1.4804851169180921e+00  1.5129090000198100e+00  1.5046727644892159e+00  1.3836179721227690e+00  1.2873617593371602e+00  3.7922865141864104e-01  1.5110711037151283e+00  1.3218346944790129e+00  1.4006347193515347e+00  8.0228881560784815e-01  6.4213894217526479e-01  9.9526856896857918e-01  4.7312584997208967e-01  6.1383110396940632e-01  6.4404638216046506e-01  1.2468468445728196e+00  4.9977063713888409e-01  1.7268464392604560e-01  1.4783418190827355e+00  1.8347547876481426e-01  1.2665301058895251e+00  1.5119088232624163e+00  9.8723414838607804e-01  9.2217026440741323e-01  1.3218598452654529e+00  1.5022060342541232e+00  9.0562570108449125e-01  1.4755259630922912e+00  1.6425389269235813e-01  3.7608912246287440e-01  2.6386096820608479e-01  9.8734971085400836e-01  9.1204876365543108e-01  1.0292907659424568e+00  1.5282396998101261e-01  7.9411139543500042e-01  1.2042390580163387e+00  3.3994304757075744e-01  1.4568160424151120e+00  1.7729280392404462e-01  4.8857697278571932e-01  7.0697014269458169e-01  6.1077147887568095e-01  4.6383778226835459e-01  1.3721583309669860e+00  1.14817