<?xml version="1.0"?>
<VTKFile type="UnstructuredGrid"  version="0.1"  >
<UnstructuredGrid>
<Piece  NumberOfPoints="2513" NumberOfCells="4852">
<Points>
<DataArray  type="Float64"  NumberOfComponents="3"  format="ascii">-1 1 0  -1 -1 0  1 -1 0  1 1 0  0 -1 0  1 0 0  0 1 0  -1 0 0  0 0 0  -1 -0.5 0  -0.5 -1 0  -0.5 1 0  -1 0.5 0  1 -0.5 0  0.5 -1 0  1 0.5 0  0.5 1 0  0.4166666666666666 -0.4166666666666667 0  -0.4166666666666667 0.4166666666666667 0  -0.25 -0.5 0  0.5 0.25 0  -0.4861111111111112 -0.06944444444444445 0  0.0732758620689655 0.507183908045977 0  -0.625 -0.625 0  0.625 0.625 0  0.7380952380952381 -0.25 0  -0.7099116161616161 0.2105429292929293 0  -0.25 0.7380952380952381 0  0.105392156862745 -0.6348039215686275 0  0.6770833333333334 -0.6770833333333333 0  -0.6770833333333334 0.6770833333333334 0  0.3472222222222222 -0.06944444444444446 0  -0.7264957264957265 -0.3044871794871795 0  0.3141940982507127 0.7297313660835709 0  0.02049587951122483 -0.3227479397556124 0  -0.2690972222222223 0.1475694444444444 0  0.3859500089908372 -0.7274430156831472 0  -0.2228477945123298 -0.1761765495248019 0  0.2182539682539683 0.1884920634920635 0  0.75 0.375 0  -0.145442219440968 -0.7602211097204841 0  0.7088913690476191 0.0427827380952381 0  -0.75 -1 0  -1 -0.75 0  1 0.75 0  0.75 1 0  -0.7439982703698937 -0.04614153195464455 0  -0.4609235096577606 -0.3356498099556895 0  0.4063134471431929 0.4895621842856023 0  0.25 -1 0  -0.25 -1 0  -0.75 1 0  0.75 -1 0  -1 -0.25 0  -1 0.25 0  1 -0.25 0  -0.25 1 0  1 -0.75 0  -1 0.75 0  0.25 1 0  1 0.25 0  -0.4041423272138783 -0.7597141090712928 0  0.06500839607911253 0.7578103030529481 0  -0.1572801182352047 0.3838997021864289 0  -0.6528005242053915 0.4409494757946086 0  -0.4930160984848485 0.1544744318181818 0  -0.4732142857142858 0.7752976190476191 0  0.6398809523809523 -0.4538690476190476 0  0.5166054117396399 -0.2161233620965164 0  -0.002273787244753427 0.2232363985975174 0  0.1500564496765022 -0.1524955293952667 0  0.2016720420046758 -0.4410343282803009 0  -0.08495178036419618 0.6274139771124571 0  -0.8367311471133162 0.3642591720794645 0  -0.8333333333333334 -0.625 0  -0.594323836800685 -0.8231079456002283 0  -0.4466957714776065 -0.5349126855671806 0  0.8125 0.5625 0  0.78125 0.78125 0  0.5091392650016769 0.7947130883338923 0  0.125 -0.8382681931833136 0  -0.8184523809523809 -0.8184523809523809 0  -0.07781530426104531 -0.5819319697006881 0  0.5085055196703295 0.04967610411902112 0  0.2918471072074933 -0.276017202318847 0  0.5120763537765269 -0.5898771553229597 0  0.625 -0.8585349462365591 0  0.8158532234335381 -0.8158532234335381 0  -0.5198088446315396 0.5739411553684605 0  -0.8585349462365591 0.625 0  -0.8150493805516597 0.8156205699829586 0  0.8585349462365591 -0.625 0  -0.2688268348649726 0.5439331383603209 0  0.8242100426758139 -0.4436043596336612 0  0.5833756314287952 0.4479378157143976 0  0.8690476190476191 -0.125 0  -0.125 0.8690476190476191 0  -0.8692745600729823 0.125 0  0.8696725120759167 0.125 0  -0.625 0.8711516477451908 0  0.2339522463269718 0.3879558377955778 0  0.2453709502295031 0.5655822922838026 0  0.1730610651637797 0.02021709580868947 0  0.3245402594056757 -0.5644672020485209 0  -0.7291666666666666 -0.4816595441595442 0  -1 -0.375 0  -0.5811140848639904 -0.2127276307675001 0  0.673332592838314 0.2158348143233718 0  0.375 1 0  -0.5714768890989919 0.2985103444040069 0  -1 -0.125 0  -0.8453692574786325 -0.1875 0  -0.3144549134065865 -0.02408675326008025 0  -0.2898414972096258 -0.3336092734780093 0  -0.1075052092206287 -0.4224330421314983 0  -0.05043970703604117 -0.1652278959397459 0  0.6459672950297897 -0.1113415301525317 0  0.4645210271029513 0.6398480556579343 0  0.3512863754411909 0.0937979496253573 0  -0.6063160985568274 0.03891469652249891 0  -0.3428819444444445 0.8690476190476191 0  0.625 1 0  -0.1602164796159982 0.02697860906625157 0  0.04648110064133829 -0.4808416424239687 0  1 0.875 0  -0.3836102479201657 0.6484936449177356 0  -0.3776011723096096 0.263078478984336 0  -0.6024978259969829 -0.3949628096211138 0  0.125 1 0  0.2010781308272777 0.8456221018461906 0  0.2822509696388829 -0.845902544691141 0  -0.3285533674953515 -0.6289773550938936 0  0.3461306793221754 0.278777492464833 0  0.4737475672408696 -0.8508448959534423 0  0.2384632828836344 -0.7029523187242811 0  -0.004777287059791593 0.3759269695907358 0  -0.8499735021850066 -0.3912320205328522 0  0.1222536293721587 0.2963971539625205 0  -0.3769456520999688 -0.203572526805711 0  -0.2749617205755651 -0.8464290792698902 0  0.004805888512766143 -0.747174355248311 0  -0.125 -1 0  -0.06001061822252458 -0.8724007765244854 0  0.875 0.4375 0  0.854421179608893 0.271342359217786 0  0.875 1 0  -0.1499861095763589 0.2358309656934888 0  0.3381943639137225 0.8663061796405532 0  -0.7853090110442228 0.4998412775277108 0  0.7398165998560814 -0.5535192694951373 0  0.1580042122341573 -0.3100246140259917 0  -0.7291666666666667 -0.7142857142857142 0  -0.375 -1 0  0.6483368386154684 0.8514905990110488 0  -0.1295370103291928 -0.2826118305021242 0  0.07458201853700455 0.1123894386563915 0  0.6146465857036327 -0.3161203659316075 0  0.5551898493894731 -0.740296118159085 0  0.375 -1 0  0.482702798370208 -0.084133350091034 0  0.87890625 0.68359375 0  -0.05917195534525846 0.4971092425697621 0  0.1260710309213975 0.6343750312956699 0  0.8690476190476191 -0.3077066815262848 0  -0.2912010232560567 0.3668168386732139 0  -0.875 1 0  -1 0.875 0  1 -0.875 0  0.875 -1 0  -0.8689564281364567 -0.006189266075306407 0  -0.7449425635110547 0.08458938160051771 0  -0.7150266761936593 -0.1739444581417552 0  -0.5260034831318311 -0.711099823962112 0  -0.4724626808827322 -0.871722230709409 0  0.4734436795977052 0.377714794132168 0  -0.875 -1 0  -1 -0.875 0  0.6927189078571988 0.5156567235715964 0  -0.3742497615796874 -0.4296005251260107 0  -0.1969436423297711 -0.6387157229772615 0  -0.6179496409766825 -0.08933356056510935 0  -0.424405057115988 0.04452428810878029 0  -0.08479048335844169 0.1279607007132633 0  0.003830300099055113 0.8712085230656206 0  0.8748778838820267 -1.379218479898026e-05 0  -0.375 1 0  -0.625 1 0  1 0.125 0  -0.125 1 0  1 -0.375 0  1 -0.125 0  1 -0.625 0  0.625 -1 0  0.125 -1 0  -0.625 -1 0  -1 -0.625 0  -1 0.125 0  -1 0.375 0  -1 0.625 0  1 0.375 0  1 0.625 0  0.6325660748712082 0.3335187599557389 0  -0.06420945895056573 0.7549874027425891 0  -0.8769015540914771 0.2478802253893416 0  0.871875 0.871875 0  -0.6868091492840067 0.3270978624973681 0  -0.5363597469565949 0.412994850055505 0  -0.6803734992638302 0.5574295000651103 0  -0.7076253581162534 -0.8803439094224437 0  -0.8778089002295137 -0.5106896447504627 0  -0.3860184984222981 0.530566778071246 0  0.6109900617121508 0.1128453077697081 0  0.3896945134930274 -0.1915382873255086 0  0.7605656944697778 -0.06822134873122943 0  0.3576151269893478 0.5948388411612135 0  -0.5689902680792265 -0.5143596830118065 0  0.6262446286847614 -0.5735657901943212 0  0.2030558252325225 -0.5625263842513452 0  0.6123273142928579 0.7407533260723429 0  0.4016460890123554 -0.3042863223111857 0  -0.59039693199147 0.7578418819188018 0  0.7276932493917544 -0.3705808024528924 0  0.5222536818742854 -0.4713886230400014 0  -0.5101986527137737 0.8848365765607674 0  0.510560172809238 0.5356013299918891 0  -0.3603569195756083 0.75823710606415 0  0.1967279277813232 0.728226870058472 0  -0.6086880986371127 0.1545624071548516 0  -0.38105366729386 0.1511189987807864 0  -0.2944659463671584 -0.7359061804869591 0  0.5060729154966499 -0.3475227845833823 0  -0.09281616240412746 -0.06197858250969457 0  0.7649739583333334 0.6673177083333334 0  0.7628906249999999 0.890234375 0  -0.2666864184909611 0.2585504071132311 0  0.3635064892129658 0.3878003602709461 0  -0.2339409722222222 0.8901937905844155 0  -0.1718792125974916 -0.8957733325456778 0  0.1001768566329531 0.4023510017391879 0  0.3120260172693757 -0.4540546875576884 0  0.7804062804433681 0.1896628610854537 0  0.4087715451998049 0.187961780041608 0  -0.1584963477271457 0.5451611892421655 0  -0.8926817849258324 0.463022006336401 0  0.2338091473445219 -0.07576267331277289 0  0.08171112182813692 -0.2349087687359925 0  0.04635385178956847 -0.1044635073718474 0  -0.4377391632114205 -0.6448874471423088 0  -0.1907678351227189 0.6480215912813945 0  0.300605946475244 0.4741444604171038 0  -0.2145033720757486 -0.06751709909419711 0  0.6069191921170397 -0.005492331448357812 0  0.0214718770761248 0.6032397936031719 0  0.5476675683364878 0.8992752415326501 0  0.4387475014316537 0.9093708953002239 0  -0.4932997685306436 -0.4381009159993523 0  0.2515197695339056 -0.1791673369138964 0  -0.7291666666666667 -0.6088789682539681 0  -0.9166666666666667 -0.6875 0  0.620579540363709 -0.2122431523583302 0  -0.484950136419973 0.6719440339397442 0  0.2857044415400258 0.0137589173127316 0  -0.8945708364098356 -0.288306105327986 0  0.4043102720140535 0.7842914560451557 0  0.04123256238752064 -0.9026968245801402 0  0.2003676884403109 -0.9091888601740487 0  0.1068775558538842 -0.7373377130403223 0  -0.4804566783514427 -0.1763307203045643 0  0.108286342087769 -0.3993789328997278 0  -0.191883080105361 -0.3640821726430649 0  -0.07025064492006244 0.2984876656890053 0  -0.7039324641409584 0.788312126296613 0  -0.7311286585775438 0.8932502354831682 0  0.5171409396884947 0.1503852691889257 0  0.4229392823658633 -0.003216522184234835 0  -0.5621736087218259 -0.919558629836806 0  -0.626474064879544 -0.7266572613636506 0  0.2446828746617422 0.2867616783302419 0  0.1759429608742923 0.4776611759306416 0  -0.3468240303741654 -0.5260416435617549 0  -0.7465808808425306 0.4069574477998361 0  -0.7819962170660292 0.2802441065650652 0  -0.3742623214119594 -0.8547800509641984 0  0.1014498009713561 0.8506721983266377 0  0.4285217620918213 -0.5230190595570253 0  0.4091738370487775 -0.6256346204225141 0  0.78125 0.46875 0  0.90625 0.53125 0  -0.4791801348852565 0.2553992655702126 0  0.7843318610782772 -0.7086046956885941 0  0.8909728264971901 -0.7355183796514634 0  0.7041908166528879 -0.7830649143180282 0  0.7311821352
[...]
<PointData  Scalars="velocity-2"> 
<DataArray  type="Float64"  Name="velocity-2"  format="ascii">0.0000000000000000e+00  0.0000000000000000e+00  0.0000000000000000e+00  0.0000000000000000e+00  0.0000000000000000e+00  1.5050094842482080e+00  0.0000000000000000e+00  1.5049588427256877e+00  1.5038084493375727e+00  1.1284543186422487e+00  0.0000000000000000e+00  0.0000000000000000e+00  1.1278176234769111e+00  1.1286047141816062e+00  0.0000000000000000e+00  1.1281970245735202e+00  0.0000000000000000e+00  1.2432452025126903e+00  1.2430397999694016e+00  1.1290521002877580e+00  1.4099480236693589e+00  1.4975291898038297e+00  1.1169288328465876e+00  9.1649407081461809e-01  9.1681408677109222e-01  1.4103155093016464e+00  1.4372626961438077e+00  6.8451209155659920e-01  8.9807542371035620e-01  8.1475826756260505e-01  8.1510442619960410e-01  1.4970308677879500e+00  1.3648426966249749e+00  7.0336576303421716e-01  1.3470819662947786e+00  1.4716121135435376e+00  7.0825038856787914e-01  1.4564084806297950e+00  1.4503539350201495e+00  1.2918119447657093e+00  6.3460044174932939e-01  1.5017487463238792e+00  0.0000000000000000e+00  6.5860885396390223e-01  6.5885786570270066e-01  0.0000000000000000e+00  1.5016749337223934e+00  1.3336534687734651e+00  1.1430269466755754e+00  0.0000000000000000e+00  0.0000000000000000e+00  0.0000000000000000e+00  0.0000000000000000e+00  1.4102696410027720e+00  1.4103225625245237e+00  1.4102135550358021e+00  0.0000000000000000e+00  6.5865719243991050e-01  6.5859325676351510e-01  0.0000000000000000e+00  1.4105303531646323e+00  6.3643413962763251e-01  6.4045791291650100e-01  1.2823223479884667e+00  1.2115064361257528e+00  1.4677546386011293e+00  6.0035403719163938e-01  1.1937679830220229e+00  1.4345012125753169e+00  1.4292357211288180e+00  1.4689419319012664e+00  1.2114930224632652e+00  9.1203091324790642e-01  1.3046402508301045e+00  9.1689431209967132e-01  4.8499452758939948e-01  1.0741582259208280e+00  1.0284347230314761e+00  5.8621682455889357e-01  5.5398929779434225e-01  4.4707024946186258e-01  4.9728810548282415e-01  9.9487162343533475e-01  1.5008286074336670e+00  1.3892600705474709e+00  9.8050150996501506e-01  3.9561634613645535e-01  5.0363133442084518e-01  1.0082901775060698e+00  9.1670218921388347e-01  5.0384798013840915e-01  9.1702554149120130e-01  1.0595951272663582e+00  1.2081456338997392e+00  1.2016843191514968e+00  1.4806638385845969e+00  3.6804267530604212e-01  1.4811646890816390e+00  1.4808519546945045e+00  3.6257172439464425e-01  1.2773482234923692e+00  1.0230385494281753e+00  1.5041784740336182e+00  1.0248382540282104e+00  1.1553574090460739e+00  1.2928203814883688e+00  1.4368327059537691e+00  1.4339306601241546e+00  0.0000000000000000e+00  1.3693964614936132e+00  1.4813548104534218e+00  1.4511018071849240e+00  1.5028422796284455e+00  1.3367130806145779e+00  1.2353469889755666e+00  1.4635966717029985e+00  1.4855549137923736e+00  8.8855320122699588e-01  1.4912016607312519e+00  1.5022741887388440e+00  3.6759634396230839e-01  0.0000000000000000e+00  1.5044499856087639e+00  1.1559130122683667e+00  3.5288492013775463e-01  8.7184548639042003e-01  1.3992194407200897e+00  1.2696600895107630e+00  0.0000000000000000e+00  4.2885538649578536e-01  4.2770386979724712e-01  9.0948677150650348e-01  1.3871023017109645e+00  4.1551617212699049e-01  7.6057988004348809e-01  1.2915699404148366e+00  1.2736349340587982e+00  1.3719923256047835e+00  1.4410444402046578e+00  4.2688520469424435e-01  6.6464236866936410e-01  0.0000000000000000e+00  3.5927857948370207e-01  1.2162395816130203e+00  1.3934498839060085e+00  0.0000000000000000e+00  1.4205545638817689e+00  3.7545485641417031e-01  1.1286328876303964e+00  1.0430033480234064e+00  1.3593991754628856e+00  7.3702896818875652e-01  0.0000000000000000e+00  4.1287036771344443e-01  1.3838782819273125e+00  1.4852971292197157e+00  1.3538660523793955e+00  6.7975167688406524e-01  0.0000000000000000e+00  1.4935200727252969e+00  8.0160133992813520e-01  1.1325869902490788e+00  8.9889963950758978e-01  1.3615759167775310e+00  1.3016258479887293e+00  0.0000000000000000e+00  3.5342928339314983e-01  3.5289887996453312e-01  0.0000000000000000e+00  1.5046451617425469e+00  1.4928014131437952e+00  1.4583241023812616e+00  7.4305364620882552e-01  3.6133727610153804e-01  1.2883371319943531e+00  0.0000000000000000e+00  3.5298885213520603e-01  1.1044768264062679e+00  1.2265830068470414e+00  8.9078537975229399e-01  1.4926495687101418e+00  1.5012295697386138e+00  1.4795357816555554e+00  3.6321430962210938e-01  1.5044768544095359e+00  0.0000000000000000e+00  0.0000000000000000e+00  1.4814812719041548e+00  0.0000000000000000e+00  1.2927251772743023e+00  1.4813522992406105e+00  9.1675407910502493e-01  0.0000000000000000e+00  0.0000000000000000e+00  0.0000000000000000e+00  9.1689167431875240e-01  1.4810946243825613e+00  1.2925819176535387e+00  9.1725014256946324e-01  1.2929699579784455e+00  9.1699225421527475e-01  1.3367422966966791e+00  6.4691290855832906e-01  1.4119002789142261e+00  3.6028287564791373e-01  1.3431305899642765e+00  1.2475009413790141e+00  1.0368310252013913e+00  3.3942059737278346e-01  1.1120100287768311e+00  1.0803967214542092e+00  1.4851242287386901e+00  1.4491634923717691e+00  1.4974319141485419e+00  9.7165277574617859e-01  1.1063344321346180e+00  1.0090174994656631e+00  1.0279250982091372e+00  6.7905636484671628e-01  1.3647496439765909e+00  6.4050506239915739e-01  1.2970505348433821e+00  1.1703545129895625e+00  3.2701921217130403e-01  1.0723915824132164e+00  6.4004782861883769e-01  7.0696546894776535e-01  1.4679955950391845e+00  1.4698985667993545e+00  6.8970725753624762e-01  1.3223693336812574e+00  1.4990610036718695e+00  8.3454185204851217e-01  3.1195074027462072e-01  1.4030858282004528e+00  1.2778072228544299e+00  3.1219590905616251e-01  2.9663764581306340e-01  1.2604272804539947e+00  1.1935769894627046e+00  1.4495878570578677e+00  1.4507622607252841e+00  1.0572341341828064e+00  1.1813810552882114e+00  1.4958899823859659e+00  1.4213909760160628e+00  1.4880631648259026e+00  8.7944792358106683e-01  8.7250295928845922e-01  1.1653341496566758e+00  1.4970288190527741e+00  1.5051844802557435e+00  9.5684811207795750e-01  2.8822632057385800e-01  2.6047897177690410e-01  1.2154694084034581e+00  1.4553439291787342e+00  9.4700100495024053e-01  7.9328353852951095e-01  1.4361634619424473e+00  8.2533257357214962e-01  1.5041450179219531e+00  1.3789702293239421e+00  5.7947707602219534e-01  2.7797291414918479e-01  2.6026548018034823e-01  6.8620564613385160e-01  1.4572751399080415e+00  1.2636206179912552e+00  1.3047420263611416e+00  1.3698576349577409e+00  5.6966992882052281e-01  3.0421888026140520e-01  1.4702533919083700e+00  1.5043198677783205e+00  2.3216460452916518e-01  7.1042710126475261e-01  1.3800004100152816e+00  1.1609377158971652e+00  1.0879658600253481e+00  1.2551359638753266e+00  1.3853470793306237e+00  4.0484177063405835e-01  4.1585789365333098e-01  1.0930503477669726e+00  9.1534575809459306e-01  1.1745635977836728e+00  1.0800262266171081e+00  1.4058771655644757e+00  7.4963114089386529e-01  6.9051097476604473e-01  5.8176404707842944e-01  3.1092877252398055e-01  5.1122828684935606e-01  7.3952882955676835e-01  7.4993289441346178e-01  1.1999298279081498e+00  2.4424154923208044e-01  3.2976271317055533e-01  5.7913646616949976e-01  7.2080930916912900e-01  2.4930110808154390e-01  3.0611204585185692e-01  8.7048041876196469e-01  8.6620692233109442e-01  4.7908117060910271e-01  7.9988629474914774e-01  1.0012536010058308e+00  1.0532010276403556e+00  9.7420580644317500e-01  1.4544847932637035e+00  1.4442880665229085e+00  1.4886977586889261e+00  1.1942203140986816e+00  1.0433485883657245e+00  2.0537003161593104e-01  1.0908889059720490e+00  1.2688734118406593e+00  5.9435863879498163e-01  9.3572755786654316e-01  1.1386510322014378e+00  1.1029035136945191e+00  1.3138009423332417e+00  1.3863247837378743e+00  1.4971035422110608e+00  8.5238787050511744e-01  1.4904106965187114e+00  5.9515645080804658e-01  7.7951380028684225e-01  1.4825930810693384e+00  1.3690469374412084e+00  1.1829157296604651e+00  1.9936176989673352e-01  1.4644774196941950e+00  1.4913121328814036e+00  1.4338994514586632e+00  1.2161953814764757e+00  1.5035254371547864e+00  1.2419923307830649e+00  1.0709399297080724e+00  8.5625114052028883e-01  1.9024159011012992e-01  1.4631333521049534e+00  1.4990212776693863e+00  1.4992791743884299e+00  1.4523839021817673e+00  1.4718707327288236e+00  1.9591335189771428e-01  7.5613783108460264e-01  1.9248934345167656e-01  1.3572358472874215e+00  1.9058350555728720e-01  8.7691134434401852e-01  1.4990079906721043e+00  1.8567893782646661e-01  1.2725038298870983e+00  1.0566231629717362e+00  1.0564490165606244e+00  5.0871603298110624e-01  1.3570003928431145e+00  1.4986407356092502e+00  1.4989159650375596e+00  1.4986800324122918e+00  1.8241815425076849e-01  2.3258651962264201e-01  1.9083527700670783e-01  1.4771454973134797e+00  1.4357262779053859e+00  1.0591822049597179e+00  6.0021934570441260e-01  1.8349385741651894e-01  8.1188096451623959e-01  1.2982986732145123e+00  7.8376578346100523e-01  1.5033228071022153e+00  1.4543717564653427e+00  5.5859794679603092e-01  6.9295295555122149e-01  1.5028557828744478e+00  1.4793158147145524e+00  1.3235669959136143e+00  1.4174650405359241e+00  1.8978859980701457e-01  1.4017035805945457e+00  1.2372806858163388e+00  1.3263999740533361e+00  1.3949367045455821e+00  1.2706422697653781e+00  1.4877253746762731e+00  1.4198144580010370e+00  8.4536633368218328e-01  5.5126049430244084e-01  1.3955133812443588e+00  1.4252127166547408e+00  9.8122028979459852e-01  1.3113986463494152e+00  9.7757262639598663e-01  1.4372254119204202e+00  1.4727192604621995e+00  1.4564399273594677e+00  1.3439632046646590e+00  1.5027297683916323e+00  7.6817071836553086e-01  2.8436678820130334e-01  1.3444487238189469e+00  4.1608547898135934e-01  1.3403788351925894e+00  1.1380750508384561e+00  1.2521377309238237e+00  1.3291479539135727e+00  1.0441104927919111e+00  1.4326448503115667e+00  1.4035866655836415e+00  1.2961177557386641e+00  1.1730096400790664e+00  1.4805277223037665e+00  0.0000000000000000e+00  1.5021548626455805e+00  1.4933650866730552e+00  1.2041601199411425e+00  1.1929253867667522e+00  5.7763360492715710e-01  1.5043943358893559e+00  1.4898787412561165e+00  8.9719863420142432e-01  1.1784067153381397e+00  1.3455529339391403e+00  9.4088853993655619e-01  1.0244541296009586e+00  0.0000000000000000e+00  1.4091672785188780e+00  1.8401847073515515e-01  5.3076878580463438e-01  1.4818521667711402e+00  4.7159021388719158e-01  2.3211370640391152e-01  8.9914685948431639e-01  1.2552918920270009e+00  1.3231608310176255e+00  2.1066208427714583e-01  1.0428558801282828e+00  4.7541865979653386e-01  6.0862252508430548e-01  1.2792157828886772e+00  1.4398440162649344e+00  6.0719489125333292e-01  1.4406573311026736e+00  1.8345006130450106e-01  1.3991961954775667e+00  1.3272752357867685e+00  5.8702937007417810e-01  9.5615867392845677e-01  8.4065077743895500e-01  1.4791229781544346e+00  5.6859230320429011e-01  5.9112797031315256e-01  9.5359939008470151e-01  0.0000000000000000e+00  1.3546568413646984e+00  0.0000000000000000e+00  9.8622732137495295e-01  1.2589636145301697e+00  1.3079289557779836e+00  1.1043389422686587e+00  1.5044317701069763e+00  1.4903844846230627e+00  1.4260308026261499e+00  1.2106282237451444e+00  1.3684758984609462e+00  0.0000000000000000e+00  2.1305106957311878e-01  9.1631401076262375e-01  1.8208828461351312e-01  7.3076121865189525e-01  1.1786792699250228e+00  4.0569792740930477e-01  1.0200529074247002e+00  7.9065357074572007e-01  6.3608347324768533e-01  3.1570723106422377e-01  0.0000000000000000e+00  4.6955083196183767e-01  4.7521163985579046e-01  5.0740283456695368e-01  1.5013695213263893e+00  0.0000000000000000e+00  9.8723833120366933e-01  7.9755449004311552e-01  1.5027869895708974e+00  1.3591493154310372e+00  1.4509862808977405e+00  1.4285697626729867e+00  1.3575440275831998e+00  1.4444553505315105e+00  1.5037153917705841e+00  6.8520008903742757e-01  1.0892985425313171e+00  8.4782853780996315e-01  1.1149539350942284e+00  1.4834788162844901e+00  1.4904174953629856e+00  0.0000000000000000e+00  9.8188918642183476e-01  2.0861920486443847e-01  2.5407100261116328e-01  1.1667639819267526e+00  1.2215651660510474e+00  1.4154595153641798e+00  2.3869309205767653e-01  7.4165028094061425e-01  1.4567094256157704e+00  1.3090250344021481e+00  1.4122294659117924e+00  1.1695178967531572e+00  1.4660534204202256e+00  1.4960182034575888e+00  1.2158695300196360e+00  1.8697977350186104e-01  2.0084334873064957e-01  2.0527149730304509e-01  1.4381799531907682e+00  5.4430890053114567e-01  1.2944342295740250e+00  1.4842640380424235e+00  1.4608997312711469e+00  1.4251713065823401e+00  9.1866018243940795e-01  1.1110855225962259e+00  4.5697586213883912e-01  1.9432048154278164e-01  1.4683805022145429e+00  1.2165923679272443e+00  1.2858215252776601e+00  1.4012470559882559e+00  1.3966118916835064e+00  1.3912890795984754e+00  1.1736358406647527e+00  1.1287191760449260e+00  1.2805492033552557e+00  1.8345647942724055e-01  0.0000000000000000e+00  1.1374614292916241e+00  1.4837700094620618e+00  1.4876101501695216e+00  1.4391589027428993e+00  5.4509815715318033e-01  2.0552680417504041e-01  1.5043025351864245e+00  6.9715816842341027e-01  7.2919561106635256e-01  1.2900572206313714e+00  1.3384105790401795e+00  6.5977790218026144e-01  5.3339408338811645e-01  7.9738620333076138e-01  8.3365541886806993e-01  1.4931639493318440e+00  6.2140691992876163e-01  8.1912487032117698e-01  8.2994307470441731e-01  1.3672344767312068e+00  9.6389590890665933e-01  9.8733089297247756e-01  1.4049359075048204e+00  1.3575351525191930e+00  7.5010946266554179e-01  1.1822924336051643e+00  3.7462176115681844e-01  1.1220026891545258e+00  1.4556522151450315e+00  1.9605560435123506e-01  4.4196079376935021e-01  1.5022439286901292e+00  4.6692322512754614e-01  5.6699295740232847e-01  4.4700002798255539e-01  8.8070131744157487e-01  1.3312900251387654e+00  1.5048569819718804e+00  5.5069950293741854e-01  1.3848575240109884e+00  1.4298390122801437e+00  1.0873393542926968e+00  1.0787970846841477e+00  6.3198325652564735e-01  1.0352873937813756e+00  1.0289024981484391e+00  1.4111624243898473e+00  1.4410766839695988e+00  1.2534710416780148e+00  1.5040817832357796e+00  8.9962581484799853e-01  1.4802853401471696e+00  1.3848787111081280e+00  4.6844859824771645e-01  1.3238025514159151e+00  7.7654075724097116e-01  1.4937893379414355e+00  8.4015764285290440e-01  1.9347230332768944e-01  3.9723165703017971e-01  5.1793682415807141e-01  6.6764869610393152e-01  1.4787346987337000e+00  1.4514758634544678e+00  1.4718388484887723e+00  1.0115091956772664e+00  1.3979436857217977e+00  1.3570114835650005e+00  1.2344261801306606e+00  1.2696676278422361e+00  1.4983812582154290e+00  0.0000000000000000e+00  1.0834965893486819e+00  9.5706366445470425e-01  7.3887394383728533e-01  6.1925354408329614e-01  8.7997054906162842e-01  7.7063747328309640e-01  1.5035313975361304e+00  5.7385302475992084e-01  1.3221371886350259e+00  9.2677005798713452e-01  1.0045346769626586e+00  1.1637363915196408e+00  0.0000000000000000e+00  5.1146833557024562e-01  4.8519618597637254e-01  7.9381621311865769e-01  7.3870103334163151e-01  7.8676543312518221e-01  1.2627783442252127e+00  1.1739355491141492e+00  1.3606759611426380e+00  1.4015500503740128e+00  7.7401285276866494e-01  0.0000000000000000e+00  1.8446467329446870e-01  4.3254275006207615e-01  1.4849008338067826e+00  5.5163976158857797e-01  1.0562736274752023e+00  1.4602581907777652e+00  1.4947038266225547e+00  7.5645820352223847e-01  1.1205567474561720e+00  8.3824378560528534e-01  2.9284184029635907e-01  1.4259016547354155e+00  1.3408174758805171e+00  1.4990814070422076e+00  1.5040393450615497e+00  2.5541308847441058e-01  7.9502649902773437e-01  1.9317712122867209e-01  1.5050072512446326e+00  2.5001720791117238e-01  1.4092495471967250e+00  1.0284557552293401e+00  7.9374484746399609e-01  0.0000000000000000e+00  0.0000000000000000e+00  0.0000000000000000e+00  1.8240823426548969e-01  0.0000000000000000e+00  0.0000000000000000e+00  1.3576152786790807e+00  5.1193337975752751e-01  0.0000000000000000e+00  0.0000000000000000e+00  1.3573614454030822e+00  0.0000000000000000e+00  0.0000000000000000e+00  1.4987900390513205e+00  1.4985333907263960e+00  1.4514752151891837e+00  1.4514624659641986e+00  1.4988072120759626e+00  1.4990056114047408e+00  0.0000000000000000e+00  1.2165768888891832e+00  0.0000000000000000e+00  0.0000000000000000e+00  1.0282137850183339e+00  0.0000000000000000e+00  0.0000000000000000e+00  5.1142838748862429e-01  0.0000000000000000e+00  0.0000000000000000e+00  7.9366229824350054e-01  0.0000000000000000e+00  5.1154447211294451e-01  1.8343480943203236e-01  0.0000000000000000e+00  1.4516692802743756e+00  0.0000000000000000e+00  1.0286334291570907e+00  0.0000000000000000e+00  1.2164218726084819e+00  7.9353439496994360e-01  1.1097099317211507e+00  1.2523426574000898e+00  4.3354161818174497e-01  1.1291925009193098e+00  1.1113173959491331e+00  1.2769880855518074e+00  1.2762521818823878e+00  1.2031746534582428e+00  1.0488640829015874e+00  1.0243648122817779e+00  1.2517448759122765e+00  1.5823589883798708e-01  1.0814808309652115e+00  9.2979446475121597e-01  1.1895606002639758e+00  1.4515612106923270e+00  1.3679290470117418e+00  1.4136754572998409e+00  1.4977405709980116e+00  1.5978681539369449e-01  1.0167579152294579e+00  1.2002136147076909e+00  1.4867779620733750e+00  1.5047777070852808e+00  1.2751175943705153e+00  1.4972918679271003e+00  1.4798683379139026e+00  1.4279907041290902e+00  1.2657253308663483e+00  1.4987891883366342e+00  1.4180326450689198e+00  1.1116482799543757e+00  1.4678748416611804e+00  1.4932620306987849e+00  8.0282470144572082e-01  1.4568944470678742e+00  1.3913575560227409e+00  1.2469140135595700e+00  1.3613397134548115e+00  1.4746507973473808e+00  1.1602394954465653e+00  9.8260998102626862e-01  1.4993066752141884e+00  9.7102424250665520e-01  1.3271297574529242e+00  1.3635340170497352e+00  1.4878384571003642e+00  7.6069717998447695e-01  1.4666262003280990e+00  1.4902210689426352e+00  1.5004815476589242e+00  1.4814180085329145e+00  1.2256057182178257e+00  1.3201364369173090e+00  1.2248617191117079e+00  1.0798774972108716e+00  1.1283504593680103e+00  4.5523378173817552e-01  1.2852743301152059e+00  1.2229073419783494e+00  1.3966943517891688e+00  4.6082113713928075e-01  3.5156896522987047e-01  1.0839278364640166e+00  1.1779657026040837e+00  1.3979978651129341e+00  5.0314999806180494e-01  8.6177904989985055e-01  1.3922875733226507e+00  1.3532726831559458e+00  1.2841543886654092e+00  5.0037279137249335e-01  7.6338795149956407e-01  6.4927021850724798e-01  4.3974987628239404e-01  1.4713802380954997e+00  1.0419305424331224e+00  1.2419348521208651e+00  1.4124921932029069e+00  1.1026199831136814e+00  1.1622306358589269e+00  1.3254038294521968e+00  1.5189072703651915e-01  1.4908413805899103e+00  1.4713219214369919e+00  1.5036791018500473e+00  1.4954571660266969e+00  1.3752030111180809e+00  1.2799638208029804e+00  3.7837754681211083e-01  1.5018348156432062e+00  1.3140516507109270e+00  1.3920508870546542e+00  7.9958465954667091e-01  6.4035863839794260e-01  9.9102795047391057e-01  4.7198630904171762e-01  6.1217912524295504e-01  6.4224030694924428e-01  1.2399356941215480e+00  4.9852944876217153e-01  1.7232370420780183e-01  1.4692104047317422e+00  1.8307864421584236e-01  1.2593830982051393e+00  1.5026783054136497e+00  9.8306380254622394e-01  9.1855385016218138e-01  1.3140747062228053e+00  1.4929951734841578e+00  9.0216343587505210e-01  1.4664216919206068e+00  1.6390567043705037e-01  3.7523631908478344e-01  2.6327823972644876e-01  9.8316414665698559e-01  9.0852143040145528e-01  1.0247155594616084e+00  1.5249711396834245e-01  7.9147133743418741e-01  1.1977785598152972e+00  3.3916095193955281e-01  1.4478050211995748e+00  1.7691961178141605e-01  4.8737651787667019e-01  7.0485738358593897e-01  6.0912900364315437e-01  4.6276064456643484e-01  1.3638440436112076e+00  1.14235