<?xml version="1.0"?>
<VTKFile type="UnstructuredGrid"  version="0.1"  >
<UnstructuredGrid>
<Piece  NumberOfPoints="2513" NumberOfCells="4852">
<Points>
<DataArray  type="Float64"  NumberOfComponents="3"  format="ascii">-1 1 0  -1 -1 0  1 -1 0  1 1 0  0 -1 0  1 0 0  0 1 0  -1 0 0  0 0 0  -1 -0.5 0  -0.5 -1 0  -0.5 1 0  -1 0.5 0  1 -0.5 0  0.5 -1 0  1 0.5 0  0.5 1 0  0.4166666666666666 -0.4166666666666667 0  -0.4166666666666667 0.4166666666666667 0  -0.25 -0.5 0  0.5 0.25 0  -0.4861111111111112 -0.06944444444444445 0  0.0732758620689655 0.507183908045977 0  -0.625 -0.625 0  0.625 0.625 0  0.7380952380952381 -0.25 0  -0.7099116161616161 0.2105429292929293 0  -0.25 0.7380952380952381 0  0.105392156862745 -0.6348039215686275 0  0.6770833333333334 -0.6770833333333333 0  -0.6770833333333334 0.6770833333333334 0  0.3472222222222222 -0.06944444444444446 0  -0.7264957264957265 -0.3044871794871795 0  0.3141940982507127 0.7297313660835709 0  0.02049587951122483 -0.3227479397556124 0  -0.2690972222222223 0.1475694444444444 0  0.3859500089908372 -0.7274430156831472 0  -0.2228477945123298 -0.1761765495248019 0  0.2182539682539683 0.1884920634920635 0  0.75 0.375 0  -0.145442219440968 -0.7602211097204841 0  0.7088913690476191 0.0427827380952381 0  -0.75 -1 0  -1 -0.75 0  1 0.75 0  0.75 1 0  -0.7439982703698937 -0.04614153195464455 0  -0.4609235096577606 -0.3356498099556895 0  0.4063134471431929 0.4895621842856023 0  0.25 -1 0  -0.25 -1 0  -0.75 1 0  0.75 -1 0  -1 -0.25 0  -1 0.25 0  1 -0.25 0  -0.25 1 0  1 -0.75 0  -1 0.75 0  0.25 1 0  1 0.25 0  -0.4041423272138783 -0.7597141090712928 0  0.06500839607911253 0.7578103030529481 0  -0.1572801182352047 0.3838997021864289 0  -0.6528005242053915 0.4409494757946086 0  -0.4930160984848485 0.1544744318181818 0  -0.4732142857142858 0.7752976190476191 0  0.6398809523809523 -0.4538690476190476 0  0.5166054117396399 -0.2161233620965164 0  -0.002273787244753427 0.2232363985975174 0  0.1500564496765022 -0.1524955293952667 0  0.2016720420046758 -0.4410343282803009 0  -0.08495178036419618 0.6274139771124571 0  -0.8367311471133162 0.3642591720794645 0  -0.8333333333333334 -0.625 0  -0.594323836800685 -0.8231079456002283 0  -0.4466957714776065 -0.5349126855671806 0  0.8125 0.5625 0  0.78125 0.78125 0  0.5091392650016769 0.7947130883338923 0  0.125 -0.8382681931833136 0  -0.8184523809523809 -0.8184523809523809 0  -0.07781530426104531 -0.5819319697006881 0  0.5085055196703295 0.04967610411902112 0  0.2918471072074933 -0.276017202318847 0  0.5120763537765269 -0.5898771553229597 0  0.625 -0.8585349462365591 0  0.8158532234335381 -0.8158532234335381 0  -0.5198088446315396 0.5739411553684605 0  -0.8585349462365591 0.625 0  -0.8150493805516597 0.8156205699829586 0  0.8585349462365591 -0.625 0  -0.2688268348649726 0.5439331383603209 0  0.8242100426758139 -0.4436043596336612 0  0.5833756314287952 0.4479378157143976 0  0.8690476190476191 -0.125 0  -0.125 0.8690476190476191 0  -0.8692745600729823 0.125 0  0.8696725120759167 0.125 0  -0.625 0.8711516477451908 0  0.2339522463269718 0.3879558377955778 0  0.2453709502295031 0.5655822922838026 0  0.1730610651637797 0.02021709580868947 0  0.3245402594056757 -0.5644672020485209 0  -0.7291666666666666 -0.4816595441595442 0  -1 -0.375 0  -0.5811140848639904 -0.2127276307675001 0  0.673332592838314 0.2158348143233718 0  0.375 1 0  -0.5714768890989919 0.2985103444040069 0  -1 -0.125 0  -0.8453692574786325 -0.1875 0  -0.3144549134065865 -0.02408675326008025 0  -0.2898414972096258 -0.3336092734780093 0  -0.1075052092206287 -0.4224330421314983 0  -0.05043970703604117 -0.1652278959397459 0  0.6459672950297897 -0.1113415301525317 0  0.4645210271029513 0.6398480556579343 0  0.3512863754411909 0.0937979496253573 0  -0.6063160985568274 0.03891469652249891 0  -0.3428819444444445 0.8690476190476191 0  0.625 1 0  -0.1602164796159982 0.02697860906625157 0  0.04648110064133829 -0.4808416424239687 0  1 0.875 0  -0.3836102479201657 0.6484936449177356 0  -0.3776011723096096 0.263078478984336 0  -0.6024978259969829 -0.3949628096211138 0  0.125 1 0  0.2010781308272777 0.8456221018461906 0  0.2822509696388829 -0.845902544691141 0  -0.3285533674953515 -0.6289773550938936 0  0.3461306793221754 0.278777492464833 0  0.4737475672408696 -0.8508448959534423 0  0.2384632828836344 -0.7029523187242811 0  -0.004777287059791593 0.3759269695907358 0  -0.8499735021850066 -0.3912320205328522 0  0.1222536293721587 0.2963971539625205 0  -0.3769456520999688 -0.203572526805711 0  -0.2749617205755651 -0.8464290792698902 0  0.004805888512766143 -0.747174355248311 0  -0.125 -1 0  -0.06001061822252458 -0.8724007765244854 0  0.875 0.4375 0  0.854421179608893 0.271342359217786 0  0.875 1 0  -0.1499861095763589 0.2358309656934888 0  0.3381943639137225 0.8663061796405532 0  -0.7853090110442228 0.4998412775277108 0  0.7398165998560814 -0.5535192694951373 0  0.1580042122341573 -0.3100246140259917 0  -0.7291666666666667 -0.7142857142857142 0  -0.375 -1 0  0.6483368386154684 0.8514905990110488 0  -0.1295370103291928 -0.2826118305021242 0  0.07458201853700455 0.1123894386563915 0  0.6146465857036327 -0.3161203659316075 0  0.5551898493894731 -0.740296118159085 0  0.375 -1 0  0.482702798370208 -0.084133350091034 0  0.87890625 0.68359375 0  -0.05917195534525846 0.4971092425697621 0  0.1260710309213975 0.6343750312956699 0  0.8690476190476191 -0.3077066815262848 0  -0.2912010232560567 0.3668168386732139 0  -0.875 1 0  -1 0.875 0  1 -0.875 0  0.875 -1 0  -0.8689564281364567 -0.006189266075306407 0  -0.7449425635110547 0.08458938160051771 0  -0.7150266761936593 -0.1739444581417552 0  -0.5260034831318311 -0.711099823962112 0  -0.4724626808827322 -0.871722230709409 0  0.4734436795977052 0.377714794132168 0  -0.875 -1 0  -1 -0.875 0  0.6927189078571988 0.5156567235715964 0  -0.3742497615796874 -0.4296005251260107 0  -0.1969436423297711 -0.6387157229772615 0  -0.6179496409766825 -0.08933356056510935 0  -0.424405057115988 0.04452428810878029 0  -0.08479048335844169 0.1279607007132633 0  0.003830300099055113 0.8712085230656206 0  0.8748778838820267 -1.379218479898026e-05 0  -0.375 1 0  -0.625 1 0  1 0.125 0  -0.125 1 0  1 -0.375 0  1 -0.125 0  1 -0.625 0  0.625 -1 0  0.125 -1 0  -0.625 -1 0  -1 -0.625 0  -1 0.125 0  -1 0.375 0  -1 0.625 0  1 0.375 0  1 0.625 0  0.6325660748712082 0.3335187599557389 0  -0.06420945895056573 0.7549874027425891 0  -0.8769015540914771 0.2478802253893416 0  0.871875 0.871875 0  -0.6868091492840067 0.3270978624973681 0  -0.5363597469565949 0.412994850055505 0  -0.6803734992638302 0.5574295000651103 0  -0.7076253581162534 -0.8803439094224437 0  -0.8778089002295137 -0.5106896447504627 0  -0.3860184984222981 0.530566778071246 0  0.6109900617121508 0.1128453077697081 0  0.3896945134930274 -0.1915382873255086 0  0.7605656944697778 -0.06822134873122943 0  0.3576151269893478 0.5948388411612135 0  -0.5689902680792265 -0.5143596830118065 0  0.6262446286847614 -0.5735657901943212 0  0.2030558252325225 -0.5625263842513452 0  0.6123273142928579 0.7407533260723429 0  0.4016460890123554 -0.3042863223111857 0  -0.59039693199147 0.7578418819188018 0  0.7276932493917544 -0.3705808024528924 0  0.5222536818742854 -0.4713886230400014 0  -0.5101986527137737 0.8848365765607674 0  0.510560172809238 0.5356013299918891 0  -0.3603569195756083 0.75823710606415 0  0.1967279277813232 0.728226870058472 0  -0.6086880986371127 0.1545624071548516 0  -0.38105366729386 0.1511189987807864 0  -0.2944659463671584 -0.7359061804869591 0  0.5060729154966499 -0.3475227845833823 0  -0.09281616240412746 -0.06197858250969457 0  0.7649739583333334 0.6673177083333334 0  0.7628906249999999 0.890234375 0  -0.2666864184909611 0.2585504071132311 0  0.3635064892129658 0.3878003602709461 0  -0.2339409722222222 0.8901937905844155 0  -0.1718792125974916 -0.8957733325456778 0  0.1001768566329531 0.4023510017391879 0  0.3120260172693757 -0.4540546875576884 0  0.7804062804433681 0.1896628610854537 0  0.4087715451998049 0.187961780041608 0  -0.1584963477271457 0.5451611892421655 0  -0.8926817849258324 0.463022006336401 0  0.2338091473445219 -0.07576267331277289 0  0.08171112182813692 -0.2349087687359925 0  0.04635385178956847 -0.1044635073718474 0  -0.4377391632114205 -0.6448874471423088 0  -0.1907678351227189 0.6480215912813945 0  0.300605946475244 0.4741444604171038 0  -0.2145033720757486 -0.06751709909419711 0  0.6069191921170397 -0.005492331448357812 0  0.0214718770761248 0.6032397936031719 0  0.5476675683364878 0.8992752415326501 0  0.4387475014316537 0.9093708953002239 0  -0.4932997685306436 -0.4381009159993523 0  0.2515197695339056 -0.1791673369138964 0  -0.7291666666666667 -0.6088789682539681 0  -0.9166666666666667 -0.6875 0  0.620579540363709 -0.2122431523583302 0  -0.484950136419973 0.6719440339397442 0  0.2857044415400258 0.0137589173127316 0  -0.8945708364098356 -0.288306105327986 0  0.4043102720140535 0.7842914560451557 0  0.04123256238752064 -0.9026968245801402 0  0.2003676884403109 -0.9091888601740487 0  0.1068775558538842 -0.7373377130403223 0  -0.4804566783514427 -0.1763307203045643 0  0.108286342087769 -0.3993789328997278 0  -0.191883080105361 -0.3640821726430649 0  -0.07025064492006244 0.2984876656890053 0  -0.7039324641409584 0.788312126296613 0  -0.7311286585775438 0.8932502354831682 0  0.5171409396884947 0.1503852691889257 0  0.4229392823658633 -0.003216522184234835 0  -0.5621736087218259 -0.919558629836806 0  -0.626474064879544 -0.7266572613636506 0  0.2446828746617422 0.2867616783302419 0  0.1759429608742923 0.4776611759306416 0  -0.3468240303741654 -0.5260416435617549 0  -0.7465808808425306 0.4069574477998361 0  -0.7819962170660292 0.2802441065650652 0  -0.3742623214119594 -0.8547800509641984 0  0.1014498009713561 0.8506721983266377 0  0.4285217620918213 -0.5230190595570253 0  0.4091738370487775 -0.6256346204225141 0  0.78125 0.46875 0  0.90625 0.53125 0  -0.4791801348852565 0.2553992655702126 0  0.7843318610782772 -0.7086046956885941 0  0.8909728264971901 -0.7355183796514634 0  0.7041908166528879 -0.7830649143180282 0  0.7311821352
[...]
<PointData  Scalars="velocity-2"> 
<DataArray  type="Float64"  Name="velocity-2"  format="ascii">0.0000000000000000e+00  0.0000000000000000e+00  0.0000000000000000e+00  0.0000000000000000e+00  0.0000000000000000e+00  1.9125000003762849e-01  0.0000000000000000e+00  1.9125000008575652e-01  1.9124999983395125e-01  1.9125099556178979e-01  0.0000000000000000e+00  0.0000000000000000e+00  1.9124355554963451e-01  1.9124579014297741e-01  0.0000000000000000e+00  1.9124000831272961e-01  0.0000000000000000e+00  1.9124989624607799e-01  1.9125047325314490e-01  1.9123726232418911e-01  1.9125000094438258e-01  1.9125000002898845e-01  1.9123826812281747e-01  1.9128058409790996e-01  1.9122956226840884e-01  1.9124999678000995e-01  1.9124999946364857e-01  1.9211268906028425e-01  1.9121603534787193e-01  1.9210385208543732e-01  1.9133247790159313e-01  1.9124999976153098e-01  1.9124996223327642e-01  1.9004577034840103e-01  1.9125010695010544e-01  1.9125000016049609e-01  1.9087025447287681e-01  1.9125001230404942e-01  1.9125000094208358e-01  1.9125030853464878e-01  1.8952044099257584e-01  1.9125000004682452e-01  0.0000000000000000e+00  1.9281412584218330e-01  1.9136202749348674e-01  0.0000000000000000e+00  1.9124999978433876e-01  1.9125007877660496e-01  1.9124743968974608e-01  0.0000000000000000e+00  0.0000000000000000e+00  0.0000000000000000e+00  0.0000000000000000e+00  1.9125000333921827e-01  1.9125001264417060e-01  1.9124999311677116e-01  0.0000000000000000e+00  1.9075213135767066e-01  1.9250937959760731e-01  0.0000000000000000e+00  1.9124997888044615e-01  1.9200488834892757e-01  1.8957317351067235e-01  1.9125066861046919e-01  1.9124966427798973e-01  1.9124999866848899e-01  1.9369922790293848e-01  1.9125743789063906e-01  1.9125001402033615e-01  1.9125000231012684e-01  1.9124999621797023e-01  1.9125534766034180e-01  1.9109647498795387e-01  1.9124995873253811e-01  1.9118667236985126e-01  1.8910569102825725e-01  1.9125549040677006e-01  1.9125377293134493e-01  1.8971904934002534e-01  1.8614534277291886e-01  1.8172706051304230e-01  1.9330885071329706e-01  1.9122614964082593e-01  1.9124999994482700e-01  1.9124986032068525e-01  1.9132805994430771e-01  1.8927945211350003e-01  1.9118538985748323e-01  1.9123310289204226e-01  1.9133770639083542e-01  1.9324417809245409e-01  1.9128846110170414e-01  1.9125336183579639e-01  1.9124867301659276e-01  1.9124779283565335e-01  1.9125000007074591e-01  1.8736276392493764e-01  1.9124999986183286e-01  1.9124999909375770e-01  1.8958312504392069e-01  1.9125007535632063e-01  1.9122853025640768e-01  1.9124999992929323e-01  1.9128097173706041e-01  1.9124717281739281e-01  1.9125011353493632e-01  1.9125000181424587e-01  1.9125000332268022e-01  0.0000000000000000e+00  1.9124988613349603e-01  1.9124999975641832e-01  1.9124999381312899e-01  1.9125000001490278e-01  1.9124970287485385e-01  1.9125496157211014e-01  1.9124999664553444e-01  1.9125000142818707e-01  1.9100663032291526e-01  1.9124999972024609e-01  1.9125000004199358e-01  1.7966138469550855e-01  0.0000000000000000e+00  1.9124999975297030e-01  1.9124806204623679e-01  1.8091491216005734e-01  1.9146300356986223e-01  1.9124999929486305e-01  1.9125005721703042e-01  0.0000000000000000e+00  1.8263860436906454e-01  1.8654737964494894e-01  1.9126315385369461e-01  1.9124999132650394e-01  1.8085612806086987e-01  1.9074708025039894e-01  1.9124899572075896e-01  1.9125022922348978e-01  1.9125006961793423e-01  1.9125000245157933e-01  1.8672569265705891e-01  1.9061037627800256e-01  0.0000000000000000e+00  1.8496035040623737e-01  1.9124870719208870e-01  1.9124996018822166e-01  0.0000000000000000e+00  1.9125001444140394e-01  1.7972586381548911e-01  1.9124883151135688e-01  1.9127043244915740e-01  1.9124991644212908e-01  1.9059508801769753e-01  0.0000000000000000e+00  1.7789415359333424e-01  1.9125010956003907e-01  1.9125000029181830e-01  1.9125015270245968e-01  1.9120531449849540e-01  0.0000000000000000e+00  1.9124999967118794e-01  1.9155795615755628e-01  1.9123951209967427e-01  1.9123755193977010e-01  1.9124993471850249e-01  1.9125010201123918e-01  0.0000000000000000e+00  2.0005589251872599e-01  1.8855815632824532e-01  0.0000000000000000e+00  1.9124999988791150e-01  1.9125000011420948e-01  1.9124999683525706e-01  1.9136573241655661e-01  1.8946694593111965e-01  1.9124991896323809e-01  0.0000000000000000e+00  1.8987751862381602e-01  1.9123279468631285e-01  1.9125008511512434e-01  1.9110262173762280e-01  1.9125000019748348e-01  1.9125000004931839e-01  1.9124999830298742e-01  1.9142597503419939e-01  1.9124999994010683e-01  0.0000000000000000e+00  0.0000000000000000e+00  1.9124999888267916e-01  0.0000000000000000e+00  1.9124953814308876e-01  1.9125000056791047e-01  1.9130879128303793e-01  0.0000000000000000e+00  0.0000000000000000e+00  0.0000000000000000e+00  1.9114918615574197e-01  1.9124999892238181e-01  1.9124953670074163e-01  1.9132384783635403e-01  1.9125038019106011e-01  1.9132330790389757e-01  1.9125012152825965e-01  1.9130442228669756e-01  1.9124999491022091e-01  1.8508391950858669e-01  1.9124996463793481e-01  1.9124941610741070e-01  1.9123909793571606e-01  1.9809316858919632e-01  1.9126054187877070e-01  1.9124525637813633e-01  1.9124999989918523e-01  1.9124999965182282e-01  1.9125000028918693e-01  1.9127603413016017e-01  1.9125859823038896e-01  1.9121127942908844e-01  1.9118428308839483e-01  1.9174331852717455e-01  1.9125001473256215e-01  1.9230938501531425e-01  1.9125065277280415e-01  1.9124580566316740e-01  1.9947647075357600e-01  1.9123738394076872e-01  1.9355382164375939e-01  1.9101853018485285e-01  1.9125000097270545e-01  1.9125000047882626e-01  1.9066616208358955e-01  1.9125038251944609e-01  1.9125000009687104e-01  1.9113816713648452e-01  1.8827096276359362e-01  1.9125000787287966e-01  1.9124987216709027e-01  1.7924337458123166e-01  1.9186874668037610e-01  1.9124897290301332e-01  1.9125115840698886e-01  1.9125000223009550e-01  1.9124999861842010e-01  1.9128270618810425e-01  1.9125629568519376e-01  1.9125000066972678e-01  1.9124998090733297e-01  1.9125000079246718e-01  1.9129795837703853e-01  1.9122981743191333e-01  1.9125300298920822e-01  1.9124999977478566e-01  1.9125000001840789e-01  1.9110721004407580e-01  2.0117264579628624e-01  1.8802349043423669e-01  1.9124952420414487e-01  1.9124998821202491e-01  1.9136248482837159e-01  1.9075151997593179e-01  1.9124999625891967e-01  1.9121276430347586e-01  1.9124999997365341e-01  1.9125000580019461e-01  1.9391621161606704e-01  1.8710674774504732e-01  1.7996061937850968e-01  1.9001282807577233e-01  1.9124999982772956e-01  1.9124830178865820e-01  1.9124966674744745e-01  1.9124992309578581e-01  1.9044820655661182e-01  1.9156142610641097e-01  1.9124999874205548e-01  1.9124999993443464e-01  1.8031729725965315e-01  1.9258083171713783e-01  1.9124994504494774e-01  1.9124648209657349e-01  1.9125094854549926e-01  1.9125008339387228e-01  1.9125001319448123e-01  1.8762282396729957e-01  1.9138973827993241e-01  1.9123662331099536e-01  1.9133718035593256e-01  1.9125088754135292e-01  1.9124184941533182e-01  1.9125003460781190e-01  1.9103651997976717e-01  1.9151259116665567e-01  1.8894517727639831e-01  1.8048950739354658e-01  1.9262818341273910e-01  1.9165699412241433e-01  1.9092274065553566e-01  1.9125015696546124e-01  1.8041907640307797e-01  2.1459586615882675e-01  1.8624993914951044e-01  1.9267531204481070e-01  1.8109712443320919e-01  1.9045753393608922e-01  1.9150324924211565e-01  1.9096470705112073e-01  1.9800098302832977e-01  1.9023297161348510e-01  1.9118619852125432e-01  1.9124714620809263e-01  1.9124683311222831e-01  1.9124999857423167e-01  1.9124999620365757e-01  1.9125000022309643e-01  1.9124878421644384e-01  1.9126295523895268e-01  1.8085623981693227e-01  1.9124209402082967e-01  1.9125008741097282e-01  1.8752384401992930e-01  1.9130840663715773e-01  1.9124959277196352e-01  1.9127556580721622e-01  1.9124918456218135e-01  1.9125002291525539e-01  1.9125000025836272e-01  1.9155274392787239e-01  1.9125000009293713e-01  1.8782931602118499e-01  1.9058832510231061e-01  1.9125000000296119e-01  1.9124994152723945e-01  1.9125463169665902e-01  1.7523558009544293e-01  1.9125000182820301e-01  1.9124999912378252e-01  1.9125000202399753e-01  1.9125327693603147e-01  1.9124999997772468e-01  1.9124974001260769e-01  1.9122058080086607e-01  1.9108253853219023e-01  1.7199207222981353e-01  1.9125000210656462e-01  1.9125000015637275e-01  1.9124999991392699e-01  1.9124999949817484e-01  1.9125000246101032e-01  1.7650234120071326e-01  1.9083600388554736e-01  1.8161301357216889e-01  1.9125009617192218e-01  1.7367543406972696e-01  1.9112249357906386e-01  1.9124999973479917e-01  1.7636306722136985e-01  1.9125003693318116e-01  1.9128714665174196e-01  1.9123369241586352e-01  1.9270453169792529e-01  1.9125016862178307e-01  1.9124999992563921e-01  1.9124999972952983e-01  1.9125000011815366e-01  1.7430786821112645e-01  1.8235950085562616e-01  1.7975566513951208e-01  1.9125000022364474e-01  1.9124999575217824e-01  1.9124650260483189e-01  1.8815464598187634e-01  1.7948390810044967e-01  1.9132190906294305e-01  1.9124980080346726e-01  1.9023009326902096e-01  1.9125000004276085e-01  1.9125000747754836e-01  1.9116620632699075e-01  1.8968654524307321e-01  1.9124999993030151e-01  1.9125000238764769e-01  1.9125003965016621e-01  1.9124997155763276e-01  1.7962523665009669e-01  1.9124997804715665e-01  1.9124776703969956e-01  1.9125003814409217e-01  1.9124993491316877e-01  1.9124983268059245e-01  1.9124999980184454e-01  1.9125001027704810e-01  1.9103484203187718e-01  1.8698551971072710e-01  1.9124992353887660e-01  1.9125000415221921e-01  1.9123976838244558e-01  1.9124998331843546e-01  1.9129601121366732e-01  1.9124999688927596e-01  1.9125000261027528e-01  1.9125000668374870e-01  1.9125011795011443e-01  1.9124999993040201e-01  1.9057676310626376e-01  1.9056138550814114e-01  1.9124997914255576e-01  1.8919794297953554e-01  1.9124982379267239e-01  1.9124720846450355e-01  1.9124666477586866e-01  1.9124996200993236e-01  1.9123466268271946e-01  1.9124999179621924e-01  1.9124999095303585e-01  1.9125085306536060e-01  1.9124755895078660e-01  1.9125000003770265e-01  0.0000000000000000e+00  1.9124999978538371e-01  1.9124999962985986e-01  1.9124837606182582e-01  1.9124852706764647e-01  1.8816671431519330e-01  1.9125000007294590e-01  1.9125000041433418e-01  1.9137910630482535e-01  1.9125471692579496e-01  1.9124994017576002e-01  1.9112699746019177e-01  1.9118594534799649e-01  0.0000000000000000e+00  1.9124991901205726e-01  1.6512420861178950e-01  1.9552969438565504e-01  1.9124999968003389e-01  1.8291846701387110e-01  1.7575306683464395e-01  1.9114378124446296e-01  1.9125024510848199e-01  1.9124990790916030e-01  1.7549601464003495e-01  1.9126157659877704e-01  1.8441985642820247e-01  1.8813378492478072e-01  1.9125086215658230e-01  1.9125002401281155e-01  1.8933463381851470e-01  1.9124999777835763e-01  1.7897484145107467e-01  1.9125001133553748e-01  1.9125001208595008e-01  1.8776777023146038e-01  1.9121687698219153e-01  1.9113235884258623e-01  1.9124999948856358e-01  1.8948842888141265e-01  1.8899506528147411e-01  1.9130061313974117e-01  0.0000000000000000e+00  1.9125001513224851e-01  0.0000000000000000e+00  1.9129529389790209e-01  1.9125043621882512e-01  1.9125015954016841e-01  1.9124532921816503e-01  1.9125000010505472e-01  1.9125000011517868e-01  1.9124999684706354e-01  1.9124510933456096e-01  1.9124989400476830e-01  0.0000000000000000e+00  1.8275451159770342e-01  1.9107264873904414e-01  1.7617214935329104e-01  1.9212996013950595e-01  1.9125671404698688e-01  1.8963781317026734e-01  1.9122404113688324e-01  1.9163627669737943e-01  1.8859454047076118e-01  2.0638256171869260e-01  0.0000000000000000e+00  1.8670147994772585e-01  1.8407424616038076e-01  1.9560450174428609e-01  1.9124999994756850e-01  0.0000000000000000e+00  1.9128231763239539e-01  1.9008812484979934e-01  1.9125000006328507e-01  1.9125003126838455e-01  1.9125000018185623e-01  1.9124998997873191e-01  1.9124997744801334e-01  1.9124999259141218e-01  1.9124999993202058e-01  1.9030325603519996e-01  1.9125795666781789e-01  1.9097052295099470e-01  1.9124471854487823e-01  1.9124999814043675e-01  1.9124999929732400e-01  0.0000000000000000e+00  1.9120372639742136e-01  1.7563004211469302e-01  1.8437979421086481e-01  1.9125056748113164e-01  1.9125150886605718e-01  1.9124999210014879e-01  1.8550545987793993e-01  1.9013713703657753e-01  1.9125000527417160e-01  1.9124977857953471e-01  1.9125001632233229e-01  1.9124984499031650e-01  1.9125000109121748e-01  1.9125000032331874e-01  1.9124763153650004e-01  1.6545274657274378e-01  1.7435913770390801e-01  1.7064900523955348e-01  1.9125000645052875e-01  1.9040052171275082e-01  1.9124949925109688e-01  1.9124999968363407e-01  1.9124999926509054e-01  1.9125002181259185e-01  1.9126489566992183e-01  1.9127983755262573e-01  1.8838764683332654e-01  1.7214597347340918e-01  1.9124999735892184e-01  1.9125155659510748e-01  1.9124964397655322e-01  1.9125000170587089e-01  1.9125000072625625e-01  1.9124995038538473e-01  1.9125142955653596e-01  1.9124710625980898e-01  1.9125013145504255e-01  1.9411691464143241e-01  0.0000000000000000e+00  1.9127185875215491e-01  1.9124999776035448e-01  1.9125000032995637e-01  1.9124999706508383e-01  1.8958003241257379e-01  1.8302829389312272e-01  1.9124999991302744e-01  1.9070283700030755e-01  1.9083615336150209e-01  1.9124987205132013e-01  1.9124974819418369e-01  1.9326010440725497e-01  1.9323264961148756e-01  1.9129291340466800e-01  1.9114156981129524e-01  1.9124999986031632e-01  1.9512549014471153e-01  1.9142131186274219e-01  1.9174567931744849e-01  1.9124996614863587e-01  1.9136760552551768e-01  1.9129308901381381e-01  1.9124999186155336e-01  1.9125000778910517e-01  1.9126501936606238e-01  1.9124934024507881e-01  1.8519371811818050e-01  1.9125909407893382e-01  1.9125000342692355e-01  1.7049951544169661e-01  1.8041465201205154e-01  1.9125000001216480e-01  1.9005252599654424e-01  1.8681228218710533e-01  1.9348530747770853e-01  1.9115888961699914e-01  1.9124977940900817e-01  1.9125000000428480e-01  1.9274750560694881e-01  1.9125000569410983e-01  1.9124998321509334e-01  1.9125885498363598e-01  1.9121272182440424e-01  1.9187302158663705e-01  1.9123311940011342e-01  1.9125787930692936e-01  1.9124999213227267e-01  1.9124999528812872e-01  1.9125008924094211e-01  1.9125000000756981e-01  1.9126307104583654e-01  1.9124999985126975e-01  1.9125006208578799e-01  1.9791987446028453e-01  1.9125003671312613e-01  1.9195116089277156e-01  1.9125000027763794e-01  1.9157500498287386e-01  1.7558576547074814e-01  1.8280609914251031e-01  1.9433123495877627e-01  1.9160699616638885e-01  1.9125000007473289e-01  1.9124999783336483e-01  1.9124999927537151e-01  1.9120744549069632e-01  1.9125001205885950e-01  1.9125000288779445e-01  1.9124915853230032e-01  1.9124939522722548e-01  1.9125000008960130e-01  0.0000000000000000e+00  1.9125137228832265e-01  1.9124616287590235e-01  1.9124206331689733e-01  1.8813200312856238e-01  1.9122588156174886e-01  1.9114267668990526e-01  1.9125000003324683e-01  1.8729097537427483e-01  1.9125153532625455e-01  1.9124794663065572e-01  1.9120914952445045e-01  1.9125227235537237e-01  0.0000000000000000e+00  1.9389418954694995e-01  1.8732951942515205e-01  1.9097367847140748e-01  1.8987604708064063e-01  1.9123755386264082e-01  1.9124997395863574e-01  1.9125142511770832e-01  1.9124998057145415e-01  1.9124998544966856e-01  1.9123235151440668e-01  0.0000000000000000e+00  1.6827217442474079e-01  1.7920244945332547e-01  1.9125000179490734e-01  1.8674112453482922e-01  1.9122905311100716e-01  1.9125000359955294e-01  1.9125000065762290e-01  1.9239840580408504e-01  1.9124112087198578e-01  1.9157250619107444e-01  1.9823545975570442e-01  1.9124998723632083e-01  1.9125000614305274e-01  1.9125000013106125e-01  1.9125000011320550e-01  1.8968471951437191e-01  1.9134741552264659e-01  1.8140979684459829e-01  1.9125000002444320e-01  1.8966743970338798e-01  1.9124999762852044e-01  1.9126666477220292e-01  1.9164527587196839e-01  0.0000000000000000e+00  0.0000000000000000e+00  0.0000000000000000e+00  1.7720816197398265e-01  0.0000000000000000e+00  0.0000000000000000e+00  1.9125008845955321e-01  1.9164552254577902e-01  0.0000000000000000e+00  0.0000000000000000e+00  1.9124996187145696e-01  0.0000000000000000e+00  0.0000000000000000e+00  1.9124999990853470e-01  1.9125000006481285e-01  1.9125000592282468e-01  1.9125000091354680e-01  1.9124999991439467e-01  1.9125000005269577e-01  0.0000000000000000e+00  1.9124950576723349e-01  0.0000000000000000e+00  0.0000000000000000e+00  1.9123585091941292e-01  0.0000000000000000e+00  0.0000000000000000e+00  1.9373841655828719e-01  0.0000000000000000e+00  0.0000000000000000e+00  1.9026452362972626e-01  0.0000000000000000e+00  1.8940434111048773e-01  2.0215528423388393e-01  0.0000000000000000e+00  1.9125000011880205e-01  0.0000000000000000e+00  1.9128519527194485e-01  0.0000000000000000e+00  1.9124836451459812e-01  1.9116932649297488e-01  1.9125565664015634e-01  1.9124884658113109e-01  1.8599911359547763e-01  1.9124734760873410e-01  1.9128234666291188e-01  1.9124965836027391e-01  1.9125051515240635e-01  1.9125264127519268e-01  1.9126182687166746e-01  1.9122957123476567e-01  1.9124953745000856e-01  1.7219236582532091e-01  1.9127338974511010e-01  1.9136285209692208e-01  1.9124693368699133e-01  1.9125000155027108e-01  1.9125004094354511e-01  1.9125005105149703e-01  1.9124999951538152e-01  1.7534970687158613e-01  1.9124271063640652e-01  1.9125076847948080e-01  1.9124999982657240e-01  1.9124999999776235e-01  1.9125041253379876e-01  1.9125000016283419e-01  1.9125000017459132e-01  1.9125001181950965e-01  1.9125030316278471e-01  1.9124999945950252e-01  1.9125000641974191e-01  1.9125547360784731e-01  1.9125000008483820e-01  1.9125000053848629e-01  1.9116636205553492e-01  1.9125000052408761e-01  1.9124997225345292e-01  1.9124929576216546e-01  1.9124986869459054e-01  1.9124999800089884e-01  1.9125044771819713e-01  1.9115357698417387e-01  1.9125000009582110e-01  1.9125933435252102e-01  1.9125004495915446e-01  1.9124999154015154e-01  1.9124999997057754e-01  1.9084211230475148e-01  1.9124999903689616e-01  1.9124999994697903e-01  1.9125000004687592e-01  1.9124999780916069e-01  1.9125134763639146e-01  1.9125039429077834e-01  1.9125440082042525e-01  1.9125235929775705e-01  1.9125809466338226e-01  1.8488400256910337e-01  1.9124987919004449e-01  1.9124758732305544e-01  1.9125001545915701e-01  1.8917058715634263e-01  1.9790400896367485e-01  1.9125447671627713e-01  1.9124949849322351e-01  1.9124998923976391e-01  1.9492734772663678e-01  1.9128573119521580e-01  1.9125000699982359e-01  1.9124996339136582e-01  1.9125015598478268e-01  1.9401113734315081e-01  1.9005713456187256e-01  1.9322149056738921e-01  1.8858636743516161e-01  1.9124999950356775e-01  1.9119710217113028e-01  1.9125084128918926e-01  1.9124999967966447e-01  1.9125294006867702e-01  1.9125151238027344e-01  1.9125007841992139e-01  1.7170937179643153e-01  1.9125000034168593e-01  1.9124999949975141e-01  1.9125000007605328e-01  1.9124999993832298e-01  1.9125012927067764e-01  1.9125024654471226e-01  1.9295869931267187e-01  1.9125000004115902e-01  1.9125033839996630e-01  1.9124998725085607e-01  1.9111572079191014e-01  1.9230366442391250e-01  1.9128565087609978e-01  1.9064023376539296e-01  1.8833899515528951e-01  1.9175685630295233e-01  1.9125095559570043e-01  1.8919645889749792e-01  1.7501243086935744e-01  1.9124999955189503e-01  1.7082454457591670e-01  1.9125052363925030e-01  1.9124999998031647e-01  1.9127797988938697e-01  1.9129921637926209e-01  1.9125001355349039e-01  1.9124999984284757e-01  1.9154214762166089e-01  1.9125000207533810e-01  1.7080864235391022e-01  1.8313092509337875e-01  1.8472823499404781e-01  1.9126418976835105e-01  1.9120765376792817e-01  1.9121344765261616e-01  1.6216775066662506e-01  1.9160937785839327e-01  1.9125272306575486e-01  1.9759061724758623e-01  1.9125000029588052e-01  1.8093353149876390e-01  1.9604810497849462e-01  1.9104429952108448e-01  1.8938538909895475e-01  1.8783611535767841e-01  1.9125012339254771e-01  1.91249