<?xml version="1.0"?>
<VTKFile type="UnstructuredGrid"  version="0.1"  >
<UnstructuredGrid>
<Piece  NumberOfPoints="2513" NumberOfCells="4852">
<Points>
<DataArray  type="Float64"  NumberOfComponents="3"  format="ascii">-1 1 0  -1 -1 0  1 -1 0  1 1 0  0 -1 0  1 0 0  0 1 0  -1 0 0  0 0 0  -1 -0.5 0  -0.5 -1 0  -0.5 1 0  -1 0.5 0  1 -0.5 0  0.5 -1 0  1 0.5 0  0.5 1 0  0.4166666666666666 -0.4166666666666667 0  -0.4166666666666667 0.4166666666666667 0  -0.25 -0.5 0  0.5 0.25 0  -0.4861111111111112 -0.06944444444444445 0  0.0732758620689655 0.507183908045977 0  -0.625 -0.625 0  0.625 0.625 0  0.7380952380952381 -0.25 0  -0.7099116161616161 0.2105429292929293 0  -0.25 0.7380952380952381 0  0.105392156862745 -0.6348039215686275 0  0.6770833333333334 -0.6770833333333333 0  -0.6770833333333334 0.6770833333333334 0  0.3472222222222222 -0.06944444444444446 0  -0.7264957264957265 -0.3044871794871795 0  0.3141940982507127 0.7297313660835709 0  0.02049587951122483 -0.3227479397556124 0  -0.2690972222222223 0.1475694444444444 0  0.3859500089908372 -0.7274430156831472 0  -0.2228477945123298 -0.1761765495248019 0  0.2182539682539683 0.1884920634920635 0  0.75 0.375 0  -0.145442219440968 -0.7602211097204841 0  0.7088913690476191 0.0427827380952381 0  -0.75 -1 0  -1 -0.75 0  1 0.75 0  0.75 1 0  -0.7439982703698937 -0.04614153195464455 0  -0.4609235096577606 -0.3356498099556895 0  0.4063134471431929 0.4895621842856023 0  0.25 -1 0  -0.25 -1 0  -0.75 1 0  0.75 -1 0  -1 -0.25 0  -1 0.25 0  1 -0.25 0  -0.25 1 0  1 -0.75 0  -1 0.75 0  0.25 1 0  1 0.25 0  -0.4041423272138783 -0.7597141090712928 0  0.06500839607911253 0.7578103030529481 0  -0.1572801182352047 0.3838997021864289 0  -0.6528005242053915 0.4409494757946086 0  -0.4930160984848485 0.1544744318181818 0  -0.4732142857142858 0.7752976190476191 0  0.6398809523809523 -0.4538690476190476 0  0.5166054117396399 -0.2161233620965164 0  -0.002273787244753427 0.2232363985975174 0  0.1500564496765022 -0.1524955293952667 0  0.2016720420046758 -0.4410343282803009 0  -0.08495178036419618 0.6274139771124571 0  -0.8367311471133162 0.3642591720794645 0  -0.8333333333333334 -0.625 0  -0.594323836800685 -0.8231079456002283 0  -0.4466957714776065 -0.5349126855671806 0  0.8125 0.5625 0  0.78125 0.78125 0  0.5091392650016769 0.7947130883338923 0  0.125 -0.8382681931833136 0  -0.8184523809523809 -0.8184523809523809 0  -0.07781530426104531 -0.5819319697006881 0  0.5085055196703295 0.04967610411902112 0  0.2918471072074933 -0.276017202318847 0  0.5120763537765269 -0.5898771553229597 0  0.625 -0.8585349462365591 0  0.8158532234335381 -0.8158532234335381 0  -0.5198088446315396 0.5739411553684605 0  -0.8585349462365591 0.625 0  -0.8150493805516597 0.8156205699829586 0  0.8585349462365591 -0.625 0  -0.2688268348649726 0.5439331383603209 0  0.8242100426758139 -0.4436043596336612 0  0.5833756314287952 0.4479378157143976 0  0.8690476190476191 -0.125 0  -0.125 0.8690476190476191 0  -0.8692745600729823 0.125 0  0.8696725120759167 0.125 0  -0.625 0.8711516477451908 0  0.2339522463269718 0.3879558377955778 0  0.2453709502295031 0.5655822922838026 0  0.1730610651637797 0.02021709580868947 0  0.3245402594056757 -0.5644672020485209 0  -0.7291666666666666 -0.4816595441595442 0  -1 -0.375 0  -0.5811140848639904 -0.2127276307675001 0  0.673332592838314 0.2158348143233718 0  0.375 1 0  -0.5714768890989919 0.2985103444040069 0  -1 -0.125 0  -0.8453692574786325 -0.1875 0  -0.3144549134065865 -0.02408675326008025 0  -0.2898414972096258 -0.3336092734780093 0  -0.1075052092206287 -0.4224330421314983 0  -0.05043970703604117 -0.1652278959397459 0  0.6459672950297897 -0.1113415301525317 0  0.4645210271029513 0.6398480556579343 0  0.3512863754411909 0.0937979496253573 0  -0.6063160985568274 0.03891469652249891 0  -0.3428819444444445 0.8690476190476191 0  0.625 1 0  -0.1602164796159982 0.02697860906625157 0  0.04648110064133829 -0.4808416424239687 0  1 0.875 0  -0.3836102479201657 0.6484936449177356 0  -0.3776011723096096 0.263078478984336 0  -0.6024978259969829 -0.3949628096211138 0  0.125 1 0  0.2010781308272777 0.8456221018461906 0  0.2822509696388829 -0.845902544691141 0  -0.3285533674953515 -0.6289773550938936 0  0.3461306793221754 0.278777492464833 0  0.4737475672408696 -0.8508448959534423 0  0.2384632828836344 -0.7029523187242811 0  -0.004777287059791593 0.3759269695907358 0  -0.8499735021850066 -0.3912320205328522 0  0.1222536293721587 0.2963971539625205 0  -0.3769456520999688 -0.203572526805711 0  -0.2749617205755651 -0.8464290792698902 0  0.004805888512766143 -0.747174355248311 0  -0.125 -1 0  -0.06001061822252458 -0.8724007765244854 0  0.875 0.4375 0  0.854421179608893 0.271342359217786 0  0.875 1 0  -0.1499861095763589 0.2358309656934888 0  0.3381943639137225 0.8663061796405532 0  -0.7853090110442228 0.4998412775277108 0  0.7398165998560814 -0.5535192694951373 0  0.1580042122341573 -0.3100246140259917 0  -0.7291666666666667 -0.7142857142857142 0  -0.375 -1 0  0.6483368386154684 0.8514905990110488 0  -0.1295370103291928 -0.2826118305021242 0  0.07458201853700455 0.1123894386563915 0  0.6146465857036327 -0.3161203659316075 0  0.5551898493894731 -0.740296118159085 0  0.375 -1 0  0.482702798370208 -0.084133350091034 0  0.87890625 0.68359375 0  -0.05917195534525846 0.4971092425697621 0  0.1260710309213975 0.6343750312956699 0  0.8690476190476191 -0.3077066815262848 0  -0.2912010232560567 0.3668168386732139 0  -0.875 1 0  -1 0.875 0  1 -0.875 0  0.875 -1 0  -0.8689564281364567 -0.006189266075306407 0  -0.7449425635110547 0.08458938160051771 0  -0.7150266761936593 -0.1739444581417552 0  -0.5260034831318311 -0.711099823962112 0  -0.4724626808827322 -0.871722230709409 0  0.4734436795977052 0.377714794132168 0  -0.875 -1 0  -1 -0.875 0  0.6927189078571988 0.5156567235715964 0  -0.3742497615796874 -0.4296005251260107 0  -0.1969436423297711 -0.6387157229772615 0  -0.6179496409766825 -0.08933356056510935 0  -0.424405057115988 0.04452428810878029 0  -0.08479048335844169 0.1279607007132633 0  0.003830300099055113 0.8712085230656206 0  0.8748778838820267 -1.379218479898026e-05 0  -0.375 1 0  -0.625 1 0  1 0.125 0  -0.125 1 0  1 -0.375 0  1 -0.125 0  1 -0.625 0  0.625 -1 0  0.125 -1 0  -0.625 -1 0  -1 -0.625 0  -1 0.125 0  -1 0.375 0  -1 0.625 0  1 0.375 0  1 0.625 0  0.6325660748712082 0.3335187599557389 0  -0.06420945895056573 0.7549874027425891 0  -0.8769015540914771 0.2478802253893416 0  0.871875 0.871875 0  -0.6868091492840067 0.3270978624973681 0  -0.5363597469565949 0.412994850055505 0  -0.6803734992638302 0.5574295000651103 0  -0.7076253581162534 -0.8803439094224437 0  -0.8778089002295137 -0.5106896447504627 0  -0.3860184984222981 0.530566778071246 0  0.6109900617121508 0.1128453077697081 0  0.3896945134930274 -0.1915382873255086 0  0.7605656944697778 -0.06822134873122943 0  0.3576151269893478 0.5948388411612135 0  -0.5689902680792265 -0.5143596830118065 0  0.6262446286847614 -0.5735657901943212 0  0.2030558252325225 -0.5625263842513452 0  0.6123273142928579 0.7407533260723429 0  0.4016460890123554 -0.3042863223111857 0  -0.59039693199147 0.7578418819188018 0  0.7276932493917544 -0.3705808024528924 0  0.5222536818742854 -0.4713886230400014 0  -0.5101986527137737 0.8848365765607674 0  0.510560172809238 0.5356013299918891 0  -0.3603569195756083 0.75823710606415 0  0.1967279277813232 0.728226870058472 0  -0.6086880986371127 0.1545624071548516 0  -0.38105366729386 0.1511189987807864 0  -0.2944659463671584 -0.7359061804869591 0  0.5060729154966499 -0.3475227845833823 0  -0.09281616240412746 -0.06197858250969457 0  0.7649739583333334 0.6673177083333334 0  0.7628906249999999 0.890234375 0  -0.2666864184909611 0.2585504071132311 0  0.3635064892129658 0.3878003602709461 0  -0.2339409722222222 0.8901937905844155 0  -0.1718792125974916 -0.8957733325456778 0  0.1001768566329531 0.4023510017391879 0  0.3120260172693757 -0.4540546875576884 0  0.7804062804433681 0.1896628610854537 0  0.4087715451998049 0.187961780041608 0  -0.1584963477271457 0.5451611892421655 0  -0.8926817849258324 0.463022006336401 0  0.2338091473445219 -0.07576267331277289 0  0.08171112182813692 -0.2349087687359925 0  0.04635385178956847 -0.1044635073718474 0  -0.4377391632114205 -0.6448874471423088 0  -0.1907678351227189 0.6480215912813945 0  0.300605946475244 0.4741444604171038 0  -0.2145033720757486 -0.06751709909419711 0  0.6069191921170397 -0.005492331448357812 0  0.0214718770761248 0.6032397936031719 0  0.5476675683364878 0.8992752415326501 0  0.4387475014316537 0.9093708953002239 0  -0.4932997685306436 -0.4381009159993523 0  0.2515197695339056 -0.1791673369138964 0  -0.7291666666666667 -0.6088789682539681 0  -0.9166666666666667 -0.6875 0  0.620579540363709 -0.2122431523583302 0  -0.484950136419973 0.6719440339397442 0  0.2857044415400258 0.0137589173127316 0  -0.8945708364098356 -0.288306105327986 0  0.4043102720140535 0.7842914560451557 0  0.04123256238752064 -0.9026968245801402 0  0.2003676884403109 -0.9091888601740487 0  0.1068775558538842 -0.7373377130403223 0  -0.4804566783514427 -0.1763307203045643 0  0.108286342087769 -0.3993789328997278 0  -0.191883080105361 -0.3640821726430649 0  -0.07025064492006244 0.2984876656890053 0  -0.7039324641409584 0.788312126296613 0  -0.7311286585775438 0.8932502354831682 0  0.5171409396884947 0.1503852691889257 0  0.4229392823658633 -0.003216522184234835 0  -0.5621736087218259 -0.919558629836806 0  -0.626474064879544 -0.7266572613636506 0  0.2446828746617422 0.2867616783302419 0  0.1759429608742923 0.4776611759306416 0  -0.3468240303741654 -0.5260416435617549 0  -0.7465808808425306 0.4069574477998361 0  -0.7819962170660292 0.2802441065650652 0  -0.3742623214119594 -0.8547800509641984 0  0.1014498009713561 0.8506721983266377 0  0.4285217620918213 -0.5230190595570253 0  0.4091738370487775 -0.6256346204225141 0  0.78125 0.46875 0  0.90625 0.53125 0  -0.4791801348852565 0.2553992655702126 0  0.7843318610782772 -0.7086046956885941 0  0.8909728264971901 -0.7355183796514634 0  0.7041908166528879 -0.7830649143180282 0  0.7311821352
[...]
<PointData  Scalars="velocity-2"> 
<DataArray  type="Float64"  Name="velocity-2"  format="ascii">0.0000000000000000e+00  0.0000000000000000e+00  0.0000000000000000e+00  0.0000000000000000e+00  0.0000000000000000e+00  1.4531930811001625e+00  0.0000000000000000e+00  1.4531211683677847e+00  1.4522373321599575e+00  1.0989900946929716e+00  0.0000000000000000e+00  0.0000000000000000e+00  1.0983437990754477e+00  1.0991360159032488e+00  0.0000000000000000e+00  1.0987109787874256e+00  0.0000000000000000e+00  1.2076721333615201e+00  1.2076902207787168e+00  1.0993789906156781e+00  1.3632634240084973e+00  1.4459637663251292e+00  1.0879242774453342e+00  8.9535710786793365e-01  8.9540138758251986e-01  1.3636178601830211e+00  1.3888842449218377e+00  6.7010147272459131e-01  8.7753869762464753e-01  7.9657109246430069e-01  7.9724971283700385e-01  1.4454586044789348e+00  1.3215709775190270e+00  6.8844962271267418e-01  1.3049945318336258e+00  1.4210947753536425e+00  6.9309132839933163e-01  1.4064772033681436e+00  1.4011109660029568e+00  1.2533887575961242e+00  6.2163620784654061e-01  1.4500129456745614e+00  0.0000000000000000e+00  6.4483593301233022e-01  6.4506156125338254e-01  0.0000000000000000e+00  1.4498848979151480e+00  1.2925450824215514e+00  1.1128486199726475e+00  0.0000000000000000e+00  0.0000000000000000e+00  0.0000000000000000e+00  0.0000000000000000e+00  1.3636653358591004e+00  1.3637378399094389e+00  1.3636354268972750e+00  0.0000000000000000e+00  6.4485439464240324e-01  6.4480594335503005e-01  0.0000000000000000e+00  1.3639174144764388e+00  6.2315910222780946e-01  6.2714932076576591e-01  1.2443861373797103e+00  1.1779962548383387e+00  1.4174016899691335e+00  5.8793826693752405e-01  1.1610163271251672e+00  1.3860530260522743e+00  1.3815043214153797e+00  1.4184546245116285e+00  1.1779419321811926e+00  8.9085701951254392e-01  1.2653913668475758e+00  8.9562632810778309e-01  4.7539749598851216e-01  1.0470836822275678e+00  1.0030878395057483e+00  5.7412949791175183e-01  5.4269455616034967e-01  4.3831009223803502e-01  4.8745474272805772e-01  9.7086800226711789e-01  1.4492097921972069e+00  1.3442853111696975e+00  9.5699499911513886e-01  3.8790277376738014e-01  4.9356443194327804e-01  9.8378350173200779e-01  8.9551588780678670e-01  4.9365163123354383e-01  8.9581857210237581e-01  1.0332663273369656e+00  1.1745702682228787e+00  1.1685083585236375e+00  1.4297261347244818e+00  3.6104128347734443e-01  1.4301857955989368e+00  1.4299701641837490e+00  3.5548342887177087e-01  1.2398174400470201e+00  9.9812788868269697e-01  1.4521639082725986e+00  9.9984257768799700e-01  1.1245249144426672e+00  1.2544195067281467e+00  1.3884795783492556e+00  1.3856390092766557e+00  0.0000000000000000e+00  1.3258134078338093e+00  1.4303406115143815e+00  1.4018344998736751e+00  1.4511224539221699e+00  1.2951930923987220e+00  1.2003369547625791e+00  1.4138191524805932e+00  1.4343916824457252e+00  8.6817119428302103e-01  1.4397828548101697e+00  1.4506228343087826e+00  3.6039929405691329e-01  0.0000000000000000e+00  1.4526633847542894e+00  1.1252521760125802e+00  3.4613592265797616e-01  8.5220698827293984e-01  1.3536038633755660e+00  1.2326722038142539e+00  0.0000000000000000e+00  4.2044323915496257e-01  4.1936899282925455e-01  8.8845672324934655e-01  1.3419167777395666e+00  4.0738681973227225e-01  7.4396156496150201e-01  1.2532361974669715e+00  1.2363994191563950e+00  1.3280647599750652e+00  1.3923055137266036e+00  4.1850148483954863e-01  6.5076772538887884e-01  0.0000000000000000e+00  3.5237355510558216e-01  1.1823357539140080e+00  1.3482534280509522e+00  0.0000000000000000e+00  1.3731894414743055e+00  3.6820004432907810e-01  1.0991543876317920e+00  1.0171603568668051e+00  1.3163215401223056e+00  7.2127682124730130e-01  0.0000000000000000e+00  4.0477140425680430e-01  1.3392461282004793e+00  1.4344205373226118e+00  1.3112266865406421e+00  6.6520560885941149e-01  0.0000000000000000e+00  1.4421778760678765e+00  7.8377043288033554e-01  1.1026413213598854e+00  8.7837233488830413e-01  1.3183584728001259e+00  1.2627237141931129e+00  0.0000000000000000e+00  3.4663430538673401e-01  3.4612910592836199e-01  0.0000000000000000e+00  1.4527451214669138e+00  1.4414465841521484e+00  1.4087319605717346e+00  7.2702286410736705e-01  3.5432424052557548e-01  1.2499758388364917e+00  0.0000000000000000e+00  3.4618785075047248e-01  1.0759934133337690e+00  1.1921304177470768e+00  8.7011360745146882e-01  1.4413478453521611e+00  1.4496280647380158e+00  1.4287796609765000e+00  3.5624322417045112e-01  1.4525132645115160e+00  0.0000000000000000e+00  0.0000000000000000e+00  1.4304547794402882e+00  0.0000000000000000e+00  1.2543099997281306e+00  1.4303854585796243e+00  8.9545776490996931e-01  0.0000000000000000e+00  0.0000000000000000e+00  0.0000000000000000e+00  8.9560214792836723e-01  1.4301050451811970e+00  1.2541850016604621e+00  8.9594661444681423e-01  1.2545417545039437e+00  8.9569293535788874e-01  1.2953518140453659e+00  6.3323129867363692e-01  1.3652801306398292e+00  3.5331444505443044e-01  1.3013428792709612e+00  1.2119860960669002e+00  1.0112169816207446e+00  3.3293875781281157e-01  1.0832513083229567e+00  1.0528376290978134e+00  1.4340038030508122e+00  1.3997945099529523e+00  1.4457427664321676e+00  9.4836504034715652e-01  1.0778484572798115e+00  9.8441803928644567e-01  1.0024926827261738e+00  6.6471216340174599e-01  1.3215023380799604e+00  6.2705410752118662e-01  1.2582650318592057e+00  1.1388655198839193e+00  3.2065672266638900e-01  1.0452719182377210e+00  6.2687551972052757e-01  6.9200922068773130e-01  1.4177880484412382e+00  1.4195623006132365e+00  6.7509189996065033e-01  1.2817263977630196e+00  1.4473706307295826e+00  8.1573660775538714e-01  3.0591913977897400e-01  1.3569995668408932e+00  1.2401952589204044e+00  3.0623411231879438e-01  2.9094234130112262e-01  1.2241358529030464e+00  1.1607924383385146e+00  1.4002930045660835e+00  1.4014201203993351e+00  1.0307591121988298e+00  1.1493695753157402e+00  1.4443835132744254e+00  1.3739836788150210e+00  1.4370236720698932e+00  8.5945970424136386e-01  8.5283544522425647e-01  1.1339096112730311e+00  1.4454475378540756e+00  1.4532053803644884e+00  9.3416979180989002e-01  2.8281455012087126e-01  2.5554113384295252e-01  1.1816139394113792e+00  1.4057738405765667e+00  9.2469851219020294e-01  7.7580928105186153e-01  1.3876800331517263e+00  8.0703197520422665e-01  1.4523651029772091e+00  1.3346639274513776e+00  5.6766293966952286e-01  2.7269105008460592e-01  2.5536714601372529e-01  6.7179056579759000e-01  1.4076623892637266e+00  1.2270373011823408e+00  1.2655313240874853e+00  1.3261229721710837e+00  5.5808511936654026e-01  2.9846986953607274e-01  1.4198412167498635e+00  1.4525422471489149e+00  2.2782747803528677e-01  6.9528423066573886e-01  1.3355501216460766e+00  1.1301385724497945e+00  1.0603933782557375e+00  1.2192149104708165e+00  1.3405867139897421e+00  3.9697959916937242e-01  4.0793952643468206e-01  1.0652353216184733e+00  8.9418673505530455e-01  1.1429090149782470e+00  1.0526970999474179e+00  1.3596539927874409e+00  7.3352189701148052e-01  6.7583775018743897e-01  5.6984739189875055e-01  3.0503782704140414e-01  5.0103641224159934e-01  7.2363447716972340e-01  7.3358461962597243e-01  1.1669914458695427e+00  2.3965184683977828e-01  3.2339712113185298e-01  5.6735242919829199e-01  7.0532441479248642e-01  2.4464436108618601e-01  3.0029237822573757e-01  8.5079712980145661e-01  8.4652278972864270e-01  4.6953825957436057e-01  7.8221125271817360e-01  9.7699286592236434e-01  1.0268782482160796e+00  9.5116275039084230e-01  1.4050868926371551e+00  1.3954581475898951e+00  1.4373744431902973e+00  1.1614581468218235e+00  1.0175489152990045e+00  2.0152197503548189e-01  1.0631179543700571e+00  1.2318651856276213e+00  5.8213972241989487e-01  9.1372368879775989e-01  1.1086117773917394e+00  1.0745033734442384e+00  1.2739071365161396e+00  1.3414152863554067e+00  1.4455947268435951e+00  8.3330970783894243e-01  1.4389752639482249e+00  5.8289333029618817e-01  7.6236189725834147e-01  1.4316523972536339e+00  1.3254693179684616e+00  1.1507506989267957e+00  1.9567901446651126e-01  1.4140075931887528e+00  1.4398892244941972e+00  1.3855261812646713e+00  1.1823084990054313e+00  1.4518463243522548e+00  1.2065991353559460e+00  1.0440355408577333e+00  8.3675322517950235e-01  1.8677624844209126e-01  1.4133147305245004e+00  1.4473117957859967e+00  1.4476436070729533e+00  1.4029093269851243e+00  1.4213830882071732e+00  1.9231271302794664e-01  7.3973987151085840e-01  1.8889153763441399e-01  1.3143992356140637e+00  1.8702428712115549e-01  8.5700613129815228e-01  1.4471278347739451e+00  1.8217463586513635e-01  1.2354156865221502e+00  1.0301935241189983e+00  1.0300729761003906e+00  4.9852377048502061e-01  1.3142784759404837e+00  1.4469153626517703e+00  1.4472185218640194e+00  1.4470480584503396e+00  1.7909215175359994e-01  2.2821036779143875e-01  1.8733757442645868e-01  1.4263226878145234e+00  1.3874225199655381e+00  1.0326249606014637e+00  5.8783114434943484e-01  1.8004105455168468e-01  7.9378289104485167e-01  1.2595413101176856e+00  7.6671319185051401e-01  1.4516828826396870e+00  1.4048206976488069e+00  5.4731562025462610e-01  6.7819141294942464e-01  1.4512115706103710e+00  1.4283207689055961e+00  1.2832634455069893e+00  1.3703353240017424e+00  1.8635641614578388e-01  1.3557228735959255e+00  1.2021327989133270e+00  1.2858028159597705e+00  1.3495597770826411e+00  1.2333148460555223e+00  1.4365926384554184e+00  1.3725383774057383e+00  8.2627078221350425e-01  5.4008628121393476e-01  1.3500816956266013e+00  1.3776664967375811e+00  9.5775686649601999e-01  1.2716957766167520e+00  9.5418095896457311e-01  1.3887647479642411e+00  1.4219681425757729e+00  1.4066745938943239e+00  1.3020081353349258e+00  1.4507974267827082e+00  7.5145323990709245e-01  2.7899006881908728e-01  1.3024473417770726e+00  4.0771226304717789e-01  1.2987567548804135e+00  1.1081005788260463e+00  1.2163366161714260e+00  1.2882380586607960e+00  1.0182362417000319e+00  1.3846116987949779e+00  1.3574932284141035e+00  1.2575321675984827e+00  1.1413584076786911e+00  1.4297718715474927e+00  0.0000000000000000e+00  1.4505859019542386e+00  1.4420412661368851e+00  1.1708756737521016e+00  1.1601200318848426e+00  5.6597775307031284e-01  1.4526807978915328e+00  1.4386040637351252e+00  8.7650742471499166e-01  1.1463729022304034e+00  1.3033011139706181e+00  9.1872231755153499e-01  9.9938621914833314e-01  0.0000000000000000e+00  1.3625457950822151e+00  1.8053129104018972e-01  5.2016736138874586e-01  1.4307892311180737e+00  4.6236385042422590e-01  2.2778028995059396e-01  8.7871964700425875e-01  1.2191575096286726e+00  1.2826902285432646e+00  2.0672815100749181e-01  1.0169979001276488e+00  4.6599971003037477e-01  5.9596329115986157e-01  1.2417166147010745e+00  1.3910050069210638e+00  5.9474053275723027e-01  1.3920256459065261e+00  1.7999467189260840e-01  1.3533733908323444e+00  1.2862801018499379e+00  5.7479628178999431e-01  9.3353939029115163e-01  8.2180005378241339e-01  1.4281817388743976e+00  5.5699322390596750e-01  5.7898036331679670e-01  9.3097871031661705e-01  0.0000000000000000e+00  1.3119846224433296e+00  0.0000000000000000e+00  9.6267365500072399e-01  1.2227013060725767e+00  1.2685352255427607e+00  1.0758687047572066e+00  1.4525890503492027e+00  1.4390914451557191e+00  1.3784410181950737e+00  1.1771873995936526e+00  1.3249023570429117e+00  0.0000000000000000e+00  2.0907866969971342e-01  8.9503621396219146e-01  1.7871705807072591e-01  7.1507018632016495e-01  1.1467213062973760e+00  3.9778962622724739e-01  9.9520147403191628e-01  7.7327272366646205e-01  6.2288190355203465e-01  3.0970579256916536e-01  0.0000000000000000e+00  4.6030805836166977e-01  4.6577124977944590e-01  4.9715718420991978e-01  1.4497163987526802e+00  0.0000000000000000e+00  9.6365061236546901e-01  7.7993502087126543e-01  1.4511022319160574e+00  1.3161998881827650e+00  1.4016427130321105e+00  1.3807635417907322e+00  1.3146877740107881e+00  1.3956588186176229e+00  1.4518747383919988e+00  6.7075291767702383e-01  1.0615659904340284e+00  8.2843715798804296e-01  1.0860468157624150e+00  1.4323734861595960e+00  1.4391755342578458e+00  0.0000000000000000e+00  9.5837402162166441e-01  2.0474437337550955e-01  2.4922569869115954e-01  1.1356614666616645e+00  1.1873798380070741e+00  1.3684210005492441e+00  2.3413184205868853e-01  7.2546090620112214e-01  1.4071271318695402e+00  1.2696239678698595e+00  1.3654744941798038e+00  1.1381984101906091e+00  1.4158344007796944e+00  1.4444752105572767e+00  1.1819723343087749e+00  1.8343238850643892e-01  1.9711858530046172e-01  2.0132605883203522e-01  1.3898326620936767e+00  5.3327181043074168e-01  1.2558027400944676e+00  1.4331284060006269e+00  1.4110823457192085e+00  1.3776338701632227e+00  8.9736755119271294e-01  1.0822672239650670e+00  4.4800506451139571e-01  1.9071412800124893e-01  1.4181713189219058e+00  1.1826953355092287e+00  1.2477764432480045e+00  1.3552259549407790e+00  1.3507838624002506e+00  1.3459229653444125e+00  1.1419318889737018e+00  1.0992161255413126e+00  1.2428444595516890e+00  1.8005867540466586e-01  0.0000000000000000e+00  1.1075320365881167e+00  1.4327439629825260e+00  1.4364855169142934e+00  1.3905858855638227e+00  5.3407198629166963e-01  2.0166998341924985e-01  1.4525288030183641e+00  6.8228671000007735e-01  7.1354650773168748e-01  1.2517950391522392e+00  1.2969104783565999e+00  6.4577997515666918e-01  5.2267211623527532e-01  7.7986142350817844e-01  8.1496626575781062e-01  1.4418270846923014e+00  6.0860426648516763e-01  8.0102516150465397e-01  8.1141242973894190e-01  1.3237709305597791e+00  9.4102565743251765e-01  9.6375106465445004e-01  1.3585067069383054e+00  1.3147294457708782e+00  7.3381902492477447e-01  1.1501765053730129e+00  3.6741413217429664e-01  1.0929353265391106e+00  1.4061288731029062e+00  1.9241935310405300e-01  4.3329960534240980e-01  1.4505086524504438e+00  4.5768603444068195e-01  5.5544791035425078e-01  4.3818134625742672e-01  8.6059900408206447e-01  1.2902805552778474e+00  1.4531982063994828e+00  5.3956491415834384e-01  1.3399865640275177e+00  1.3818392460571303e+00  1.0595498984344067e+00  1.0516048039588730e+00  6.1892001124050711e-01  1.0095327161055461e+00  1.0036529581776545e+00  1.3645040107576600e+00  1.3924119969114672e+00  1.2174085515171094e+00  1.4523039244006160e+00  8.7878865068581835e-01  1.4294291667543078e+00  1.3398633944721363e+00  4.5917564827366447e-01  1.2835205706082873e+00  7.5972258609710375e-01  1.4423950759915121e+00  8.2136285368997641e-01  1.8987323246171420e-01  3.8953102871395662e-01  5.0754677768641487e-01  6.5363398605327550e-01  1.4278259167923917e+00  1.4020945608016073e+00  1.4214569430301551e+00  9.8692776982240216e-01  1.3521471174005837e+00  1.3141025021434898e+00  1.1994057584087676e+00  1.2325083070966318e+00  1.4468142791183698e+00  0.0000000000000000e+00  1.0560220458328851e+00  9.3453492397393922e-01  7.2317887642469370e-01  6.0641601692142655e-01  8.5968347022594838e-01  7.5395284836852039e-01  1.4520012974663954e+00  5.6202285685452935e-01  1.2815579443875926e+00  9.0509524388653506e-01  9.8020217725701964e-01  1.1325214646832440e+00  0.0000000000000000e+00  5.0122351469005211e-01  4.7548510185001835e-01  7.7636952234687073e-01  7.2261905115559899e-01  7.6954287056518922e-01  1.2263260563236389e+00  1.1422448473294791e+00  1.3176567621726869e+00  1.3554318120526561e+00  7.5697519568693261e-01  0.0000000000000000e+00  1.8104672086052789e-01  4.2387666735278573e-01  1.4336448855074444e+00  5.4028100183246974e-01  1.0298277442751640e+00  1.4105231322270269e+00  1.4431522262163043e+00  7.4006765524901097e-01  1.0914400157554391e+00  8.1949518607218397e-01  2.8724991077307743e-01  1.3783993701768398e+00  1.2991664874089359e+00  1.4474634371385742e+00  1.4522266092586398e+00  2.5068368368212146e-01  7.7733899258022254e-01  1.8953632497190190e-01  1.4532088407399459e+00  2.4545800633222370e-01  1.3627364460187266e+00  1.0031961184726619e+00  7.7625697216610900e-01  0.0000000000000000e+00  0.0000000000000000e+00  0.0000000000000000e+00  1.7903907135423400e-01  0.0000000000000000e+00  0.0000000000000000e+00  1.3147965630065845e+00  5.0169850018620399e-01  0.0000000000000000e+00  0.0000000000000000e+00  1.3145550242518349e+00  0.0000000000000000e+00  0.0000000000000000e+00  1.4471241886956554e+00  1.4468716283465017e+00  1.4020937170354915e+00  1.4021059335579009e+00  1.4471407989656615e+00  1.4473390577231597e+00  0.0000000000000000e+00  1.1827029745612878e+00  0.0000000000000000e+00  0.0000000000000000e+00  1.0029362322017905e+00  0.0000000000000000e+00  0.0000000000000000e+00  5.0119027197750898e-01  0.0000000000000000e+00  0.0000000000000000e+00  7.7618603186110335e-01  0.0000000000000000e+00  5.0131053761979305e-01  1.8007398483509124e-01  0.0000000000000000e+00  1.4022682513639286e+00  0.0000000000000000e+00  1.0033493016604171e+00  0.0000000000000000e+00  1.1825193501019911e+00  7.7604734044535051e-01  1.0808996244026721e+00  1.2163875321458832e+00  4.2501767900881643e-01  1.0997364749393188e+00  1.0827165423926772e+00  1.2394690584476253e+00  1.2388142283075767e+00  1.1699704633123749e+00  1.0227461884220581e+00  9.9916053299175389e-01  1.2158801794631509e+00  1.5532605783944078e-01  1.0540482541961911e+00  9.0823232810232102e-01  1.1570935558988766e+00  1.4022974123198702e+00  1.3245770888939783e+00  1.3668309650826176e+00  1.4460740275915283e+00  1.5683894189837400e-01  9.9191749298665555e-01  1.1672142788228190e+00  1.4353471848313410e+00  1.4529096132631059e+00  1.2377942091936407e+00  1.4458438772221991e+00  1.4290256269951949e+00  1.3803347361774605e+00  1.2289959009403260e+00  1.4471384972496271e+00  1.3710223688413992e+00  1.0831049830793005e+00  1.4175725908711616e+00  1.4418161512002328e+00  7.8509274185840883e-01  1.4070434193515180e+00  1.3460995437391956e+00  1.2114163941299252e+00  1.3182431824849608e+00  1.4239275869058741e+00  1.1291960860455861e+00  9.5908523393953349e-01  1.4477821898563699e+00  9.4791208951581063e-01  1.2864734732636880e+00  1.3203737175797392e+00  1.4364976647839756e+00  7.4427815461305302e-01  1.4164709794987298e+00  1.4388619324657392e+00  1.4487512237819882e+00  1.4304688866634445e+00  1.1912018756359439e+00  1.2798474577243331e+00  1.1903341936350729e+00  1.0526867045256987e+00  1.0989351619941370e+00  4.4616476201840910e-01  1.2474148891789532e+00  1.1885636492679970e+00  1.3509636937925824e+00  4.5174934844160364e-01  3.4481992690428048e-01  1.0562509939663374e+00  1.1461467076024072e+00  1.3522302340368717e+00  4.9300261692306940e-01  8.4226250718174778e-01  1.3468316045008653e+00  1.3107824533091739e+00  1.2461905408525404e+00  4.9040448780910084e-01  7.4678904970810389e-01  6.3585142311597853e-01  4.3114398022902278e-01  1.4208514536610335e+00  1.0159216545506664e+00  1.2064548170181530e+00  1.3657863505790424e+00  1.0742764842710653e+00  1.1311062180184537e+00  1.2847087676573992e+00  1.4908894456212543e-01  1.4393975466808704e+00  1.4207247108345187e+00  1.4519119665944205e+00  1.4440637440194624e+00  1.3311403746058224e+00  1.2421795978305741e+00  3.7109257282729541e-01  1.4500904366156753e+00  1.2742577086896900e+00  1.3468146808291570e+00  7.8184486879764525e-01  6.2709617462190470e-01  9.6718757195648764e-01  4.6268362140324404e-01  5.9961397678613226e-01  6.2887214679462822e-01  1.2047623077697360e+00  4.8843537221108657e-01  1.6912743266757505e-01  1.4187720341275105e+00  1.7967591881929934e-01  1.2230897667867091e+00  1.4509399624173132e+00  9.5944209098698996e-01  8.9718186213460382e-01  1.2742351564455667e+00  1.4415975132616072e+00  8.8133128932332760e-01  1.4162253389891641e+00  1.6086009739749901e-01  3.6811255560822070e-01  2.5827738514487353e-01  9.5963190657559416e-01  8.8757675984270690e-01  9.9963128826458192e-01  1.4963963906302696e-01  7.7404680350267407e-01  1.1650042171983612e+00  3.3260867852576675e-01  1.3986397539500459e+00  1.7364335418565949e-01  4.7776003820179080e-01  6.8972308143714312e-01  5.9654451736648684e-01  4.5363517538898041e-01  1.3204402451166901e+00  1.11229