<?xml version="1.0"?>
<VTKFile type="UnstructuredGrid"  version="0.1"  >
<UnstructuredGrid>
<Piece  NumberOfPoints="2513" NumberOfCells="4852">
<Points>
<DataArray  type="Float64"  NumberOfComponents="3"  format="ascii">-1 1 0  -1 -1 0  1 -1 0  1 1 0  0 -1 0  1 0 0  0 1 0  -1 0 0  0 0 0  -1 -0.5 0  -0.5 -1 0  -0.5 1 0  -1 0.5 0  1 -0.5 0  0.5 -1 0  1 0.5 0  0.5 1 0  0.4166666666666666 -0.4166666666666667 0  -0.4166666666666667 0.4166666666666667 0  -0.25 -0.5 0  0.5 0.25 0  -0.4861111111111112 -0.06944444444444445 0  0.0732758620689655 0.507183908045977 0  -0.625 -0.625 0  0.625 0.625 0  0.7380952380952381 -0.25 0  -0.7099116161616161 0.2105429292929293 0  -0.25 0.7380952380952381 0  0.105392156862745 -0.6348039215686275 0  0.6770833333333334 -0.6770833333333333 0  -0.6770833333333334 0.6770833333333334 0  0.3472222222222222 -0.06944444444444446 0  -0.7264957264957265 -0.3044871794871795 0  0.3141940982507127 0.7297313660835709 0  0.02049587951122483 -0.3227479397556124 0  -0.2690972222222223 0.1475694444444444 0  0.3859500089908372 -0.7274430156831472 0  -0.2228477945123298 -0.1761765495248019 0  0.2182539682539683 0.1884920634920635 0  0.75 0.375 0  -0.145442219440968 -0.7602211097204841 0  0.7088913690476191 0.0427827380952381 0  -0.75 -1 0  -1 -0.75 0  1 0.75 0  0.75 1 0  -0.7439982703698937 -0.04614153195464455 0  -0.4609235096577606 -0.3356498099556895 0  0.4063134471431929 0.4895621842856023 0  0.25 -1 0  -0.25 -1 0  -0.75 1 0  0.75 -1 0  -1 -0.25 0  -1 0.25 0  1 -0.25 0  -0.25 1 0  1 -0.75 0  -1 0.75 0  0.25 1 0  1 0.25 0  -0.4041423272138783 -0.7597141090712928 0  0.06500839607911253 0.7578103030529481 0  -0.1572801182352047 0.3838997021864289 0  -0.6528005242053915 0.4409494757946086 0  -0.4930160984848485 0.1544744318181818 0  -0.4732142857142858 0.7752976190476191 0  0.6398809523809523 -0.4538690476190476 0  0.5166054117396399 -0.2161233620965164 0  -0.002273787244753427 0.2232363985975174 0  0.1500564496765022 -0.1524955293952667 0  0.2016720420046758 -0.4410343282803009 0  -0.08495178036419618 0.6274139771124571 0  -0.8367311471133162 0.3642591720794645 0  -0.8333333333333334 -0.625 0  -0.594323836800685 -0.8231079456002283 0  -0.4466957714776065 -0.5349126855671806 0  0.8125 0.5625 0  0.78125 0.78125 0  0.5091392650016769 0.7947130883338923 0  0.125 -0.8382681931833136 0  -0.8184523809523809 -0.8184523809523809 0  -0.07781530426104531 -0.5819319697006881 0  0.5085055196703295 0.04967610411902112 0  0.2918471072074933 -0.276017202318847 0  0.5120763537765269 -0.5898771553229597 0  0.625 -0.8585349462365591 0  0.8158532234335381 -0.8158532234335381 0  -0.5198088446315396 0.5739411553684605 0  -0.8585349462365591 0.625 0  -0.8150493805516597 0.8156205699829586 0  0.8585349462365591 -0.625 0  -0.2688268348649726 0.5439331383603209 0  0.8242100426758139 -0.4436043596336612 0  0.5833756314287952 0.4479378157143976 0  0.8690476190476191 -0.125 0  -0.125 0.8690476190476191 0  -0.8692745600729823 0.125 0  0.8696725120759167 0.125 0  -0.625 0.8711516477451908 0  0.2339522463269718 0.3879558377955778 0  0.2453709502295031 0.5655822922838026 0  0.1730610651637797 0.02021709580868947 0  0.3245402594056757 -0.5644672020485209 0  -0.7291666666666666 -0.4816595441595442 0  -1 -0.375 0  -0.5811140848639904 -0.2127276307675001 0  0.673332592838314 0.2158348143233718 0  0.375 1 0  -0.5714768890989919 0.2985103444040069 0  -1 -0.125 0  -0.8453692574786325 -0.1875 0  -0.3144549134065865 -0.02408675326008025 0  -0.2898414972096258 -0.3336092734780093 0  -0.1075052092206287 -0.4224330421314983 0  -0.05043970703604117 -0.1652278959397459 0  0.6459672950297897 -0.1113415301525317 0  0.4645210271029513 0.6398480556579343 0  0.3512863754411909 0.0937979496253573 0  -0.6063160985568274 0.03891469652249891 0  -0.3428819444444445 0.8690476190476191 0  0.625 1 0  -0.1602164796159982 0.02697860906625157 0  0.04648110064133829 -0.4808416424239687 0  1 0.875 0  -0.3836102479201657 0.6484936449177356 0  -0.3776011723096096 0.263078478984336 0  -0.6024978259969829 -0.3949628096211138 0  0.125 1 0  0.2010781308272777 0.8456221018461906 0  0.2822509696388829 -0.845902544691141 0  -0.3285533674953515 -0.6289773550938936 0  0.3461306793221754 0.278777492464833 0  0.4737475672408696 -0.8508448959534423 0  0.2384632828836344 -0.7029523187242811 0  -0.004777287059791593 0.3759269695907358 0  -0.8499735021850066 -0.3912320205328522 0  0.1222536293721587 0.2963971539625205 0  -0.3769456520999688 -0.203572526805711 0  -0.2749617205755651 -0.8464290792698902 0  0.004805888512766143 -0.747174355248311 0  -0.125 -1 0  -0.06001061822252458 -0.8724007765244854 0  0.875 0.4375 0  0.854421179608893 0.271342359217786 0  0.875 1 0  -0.1499861095763589 0.2358309656934888 0  0.3381943639137225 0.8663061796405532 0  -0.7853090110442228 0.4998412775277108 0  0.7398165998560814 -0.5535192694951373 0  0.1580042122341573 -0.3100246140259917 0  -0.7291666666666667 -0.7142857142857142 0  -0.375 -1 0  0.6483368386154684 0.8514905990110488 0  -0.1295370103291928 -0.2826118305021242 0  0.07458201853700455 0.1123894386563915 0  0.6146465857036327 -0.3161203659316075 0  0.5551898493894731 -0.740296118159085 0  0.375 -1 0  0.482702798370208 -0.084133350091034 0  0.87890625 0.68359375 0  -0.05917195534525846 0.4971092425697621 0  0.1260710309213975 0.6343750312956699 0  0.8690476190476191 -0.3077066815262848 0  -0.2912010232560567 0.3668168386732139 0  -0.875 1 0  -1 0.875 0  1 -0.875 0  0.875 -1 0  -0.8689564281364567 -0.006189266075306407 0  -0.7449425635110547 0.08458938160051771 0  -0.7150266761936593 -0.1739444581417552 0  -0.5260034831318311 -0.711099823962112 0  -0.4724626808827322 -0.871722230709409 0  0.4734436795977052 0.377714794132168 0  -0.875 -1 0  -1 -0.875 0  0.6927189078571988 0.5156567235715964 0  -0.3742497615796874 -0.4296005251260107 0  -0.1969436423297711 -0.6387157229772615 0  -0.6179496409766825 -0.08933356056510935 0  -0.424405057115988 0.04452428810878029 0  -0.08479048335844169 0.1279607007132633 0  0.003830300099055113 0.8712085230656206 0  0.8748778838820267 -1.379218479898026e-05 0  -0.375 1 0  -0.625 1 0  1 0.125 0  -0.125 1 0  1 -0.375 0  1 -0.125 0  1 -0.625 0  0.625 -1 0  0.125 -1 0  -0.625 -1 0  -1 -0.625 0  -1 0.125 0  -1 0.375 0  -1 0.625 0  1 0.375 0  1 0.625 0  0.6325660748712082 0.3335187599557389 0  -0.06420945895056573 0.7549874027425891 0  -0.8769015540914771 0.2478802253893416 0  0.871875 0.871875 0  -0.6868091492840067 0.3270978624973681 0  -0.5363597469565949 0.412994850055505 0  -0.6803734992638302 0.5574295000651103 0  -0.7076253581162534 -0.8803439094224437 0  -0.8778089002295137 -0.5106896447504627 0  -0.3860184984222981 0.530566778071246 0  0.6109900617121508 0.1128453077697081 0  0.3896945134930274 -0.1915382873255086 0  0.7605656944697778 -0.06822134873122943 0  0.3576151269893478 0.5948388411612135 0  -0.5689902680792265 -0.5143596830118065 0  0.6262446286847614 -0.5735657901943212 0  0.2030558252325225 -0.5625263842513452 0  0.6123273142928579 0.7407533260723429 0  0.4016460890123554 -0.3042863223111857 0  -0.59039693199147 0.7578418819188018 0  0.7276932493917544 -0.3705808024528924 0  0.5222536818742854 -0.4713886230400014 0  -0.5101986527137737 0.8848365765607674 0  0.510560172809238 0.5356013299918891 0  -0.3603569195756083 0.75823710606415 0  0.1967279277813232 0.728226870058472 0  -0.6086880986371127 0.1545624071548516 0  -0.38105366729386 0.1511189987807864 0  -0.2944659463671584 -0.7359061804869591 0  0.5060729154966499 -0.3475227845833823 0  -0.09281616240412746 -0.06197858250969457 0  0.7649739583333334 0.6673177083333334 0  0.7628906249999999 0.890234375 0  -0.2666864184909611 0.2585504071132311 0  0.3635064892129658 0.3878003602709461 0  -0.2339409722222222 0.8901937905844155 0  -0.1718792125974916 -0.8957733325456778 0  0.1001768566329531 0.4023510017391879 0  0.3120260172693757 -0.4540546875576884 0  0.7804062804433681 0.1896628610854537 0  0.4087715451998049 0.187961780041608 0  -0.1584963477271457 0.5451611892421655 0  -0.8926817849258324 0.463022006336401 0  0.2338091473445219 -0.07576267331277289 0  0.08171112182813692 -0.2349087687359925 0  0.04635385178956847 -0.1044635073718474 0  -0.4377391632114205 -0.6448874471423088 0  -0.1907678351227189 0.6480215912813945 0  0.300605946475244 0.4741444604171038 0  -0.2145033720757486 -0.06751709909419711 0  0.6069191921170397 -0.005492331448357812 0  0.0214718770761248 0.6032397936031719 0  0.5476675683364878 0.8992752415326501 0  0.4387475014316537 0.9093708953002239 0  -0.4932997685306436 -0.4381009159993523 0  0.2515197695339056 -0.1791673369138964 0  -0.7291666666666667 -0.6088789682539681 0  -0.9166666666666667 -0.6875 0  0.620579540363709 -0.2122431523583302 0  -0.484950136419973 0.6719440339397442 0  0.2857044415400258 0.0137589173127316 0  -0.8945708364098356 -0.288306105327986 0  0.4043102720140535 0.7842914560451557 0  0.04123256238752064 -0.9026968245801402 0  0.2003676884403109 -0.9091888601740487 0  0.1068775558538842 -0.7373377130403223 0  -0.4804566783514427 -0.1763307203045643 0  0.108286342087769 -0.3993789328997278 0  -0.191883080105361 -0.3640821726430649 0  -0.07025064492006244 0.2984876656890053 0  -0.7039324641409584 0.788312126296613 0  -0.7311286585775438 0.8932502354831682 0  0.5171409396884947 0.1503852691889257 0  0.4229392823658633 -0.003216522184234835 0  -0.5621736087218259 -0.919558629836806 0  -0.626474064879544 -0.7266572613636506 0  0.2446828746617422 0.2867616783302419 0  0.1759429608742923 0.4776611759306416 0  -0.3468240303741654 -0.5260416435617549 0  -0.7465808808425306 0.4069574477998361 0  -0.7819962170660292 0.2802441065650652 0  -0.3742623214119594 -0.8547800509641984 0  0.1014498009713561 0.8506721983266377 0  0.4285217620918213 -0.5230190595570253 0  0.4091738370487775 -0.6256346204225141 0  0.78125 0.46875 0  0.90625 0.53125 0  -0.4791801348852565 0.2553992655702126 0  0.7843318610782772 -0.7086046956885941 0  0.8909728264971901 -0.7355183796514634 0  0.7041908166528879 -0.7830649143180282 0  0.7311821352
[...]
<PointData  Scalars="velocity-2"> 
<DataArray  type="Float64"  Name="velocity-2"  format="ascii">0.0000000000000000e+00  0.0000000000000000e+00  0.0000000000000000e+00  0.0000000000000000e+00  0.0000000000000000e+00  1.4962559875339718e+00  0.0000000000000000e+00  1.4962095113014935e+00  1.4950507940335729e+00  1.1224972377094389e+00  0.0000000000000000e+00  0.0000000000000000e+00  1.1218579939581366e+00  1.1226423433428034e+00  0.0000000000000000e+00  1.1222403974343895e+00  0.0000000000000000e+00  1.2364830828260118e+00  1.2363025145573256e+00  1.1230560090213848e+00  1.4021312829935633e+00  1.4888513203468512e+00  1.1110421181406196e+00  9.1196731809955744e-01  9.1233349369465211e-01  1.4025084167745738e+00  1.4292409339468011e+00  6.8134307492466917e-01  8.9368035559883185e-01  8.1087514512988779e-01  8.1119374712565617e-01  1.4884011385246532e+00  1.3572874268302371e+00  7.0010454621278606e-01  1.3396320386302865e+00  1.4632656308608905e+00  7.0498202380317898e-01  1.4482702187827472e+00  1.4422294944608145e+00  1.2847393269877576e+00  6.3172746465803165e-01  1.4930467750229313e+00  0.0000000000000000e+00  6.5560778263242470e-01  6.5585667272061743e-01  0.0000000000000000e+00  1.4929986660283463e+00  1.3263454477663317e+00  1.1369776668830782e+00  0.0000000000000000e+00  0.0000000000000000e+00  0.0000000000000000e+00  0.0000000000000000e+00  1.4024412826914605e+00  1.4024878421389320e+00  1.4023816146729013e+00  0.0000000000000000e+00  6.5565867793885824e-01  6.5559166145398218e-01  0.0000000000000000e+00  1.4026965842059556e+00  6.3351189485987103e-01  6.3755109431066281e-01  1.2753420366839472e+00  1.2049570294254437e+00  1.4594484245605812e+00  5.9767495885532673e-01  1.1873676284747077e+00  1.4265301105746371e+00  1.4212277262393009e+00  1.4606220588406447e+00  1.2049358749946140e+00  9.0751882573021381e-01  1.2974820055613663e+00  9.1237174951420574e-01  4.8287532249335052e-01  1.0685787266858429e+00  1.0231835541245025e+00  5.8361417362648116e-01  5.5154242715627078e-01  4.4513962918904865e-01  4.9510789439627700e-01  9.8980958832965760e-01  1.4921194907120678e+00  1.3815767886630432e+00  9.7557288356277727e-01  3.9393679961504596e-01  5.0142403832334992e-01  1.0031540811155122e+00  9.1218259753814035e-01  5.0164094830721684e-01  9.1248326961241755e-01  1.0541143279893967e+00  1.2016764117381278e+00  1.1952295335149432e+00  1.4722121095803904e+00  3.6645905682438040e-01  1.4727192885808429e+00  1.4723992036465972e+00  3.6105929077374854e-01  1.2704102940089104e+00  1.0178140521793029e+00  1.4954817224036427e+00  1.0196029944652922e+00  1.1491899662054588e+00  1.2857501754604259e+00  1.4287583306951634e+00  1.4259406760570292e+00  0.0000000000000000e+00  1.3618280404668774e+00  1.4728919324468401e+00  1.4429184386469713e+00  1.4940757080236682e+00  1.3293632462973382e+00  1.2286337111375252e+00  1.4553216146119574e+00  1.4770547865167687e+00  8.8423273056165119e-01  1.4826048025808207e+00  1.4935543600095134e+00  3.6603393039282617e-01  0.0000000000000000e+00  1.4956990011649840e+00  1.1497247877846686e+00  3.5138560159769100e-01  8.6758910551161628e-01  1.3914424723789580e+00  1.2627448660719829e+00  0.0000000000000000e+00  4.2700563072050196e-01  4.2586713313708074e-01  9.0497671003201441e-01  1.3794762487597405e+00  4.1372991027481559e-01  7.5704508390628811e-01  1.2845131093199382e+00  1.2666874771197816e+00  1.3644435618289683e+00  1.4329730030654950e+00  4.2503368345902337e-01  6.6160382687710628e-01  0.0000000000000000e+00  3.5776247979890585e-01  1.2096675589809223e+00  1.3857173454057581e+00  0.0000000000000000e+00  1.4126653309870663e+00  3.7383844768824859e-01  1.1226658213530754e+00  1.0375819632802339e+00  1.3518847883080605e+00  7.3358563221621398e-01  0.0000000000000000e+00  4.1108623335332428e-01  1.3762316860977106e+00  1.4767644200567271e+00  1.3464325246202646e+00  6.7664657148153051e-01  0.0000000000000000e+00  1.4848981783179378e+00  7.9781778354757604e-01  1.1266256232604814e+00  8.9447616570368815e-01  1.3540909976851656e+00  1.2944856148531336e+00  0.0000000000000000e+00  3.5193575882886829e-01  3.5140898147837257e-01  0.0000000000000000e+00  1.4958926967432775e+00  1.4842301845278931e+00  1.4500662537216573e+00  7.3957202911275044e-01  3.5977628716844345e-01  1.2813253342852182e+00  0.0000000000000000e+00  3.5149531792883809e-01  1.0986976185234045e+00  1.2199355036067403e+00  8.8643962603044935e-01  1.4840129915816052e+00  1.4924876393291715e+00  1.4710762455175264e+00  3.6169637347617534e-01  1.4957498779822360e+00  0.0000000000000000e+00  0.0000000000000000e+00  1.4730223466700312e+00  0.0000000000000000e+00  1.2856438277729083e+00  1.4728906108711273e+00  9.1222933466692802e-01  0.0000000000000000e+00  0.0000000000000000e+00  0.0000000000000000e+00  9.1237327778140032e-01  1.4726386865390437e+00  1.2855084213411114e+00  9.1273136414559108e-01  1.2858929430403065e+00  9.1247890272932675e-01  1.3293816165053043e+00  6.4397879813334913e-01  1.4040621247641081e+00  3.5875617995614933e-01  1.3357291040654162e+00  1.2407281548590641e+00  1.0314922240145334e+00  3.3798703067616775e-01  1.1061609451827827e+00  1.0747815029820322e+00  1.4766053288733401e+00  1.4410024866490621e+00  1.4888133713504828e+00  9.6676007771653061e-01  1.1005343470864222e+00  1.0038887154983551e+00  1.0226914443247150e+00  6.7596716366624920e-01  1.3572418298815307e+00  6.3762146591261559e-01  1.2899536062321688e+00  1.1641395999803019e+00  3.2566335003018748e-01  1.0668494143836662e+00  6.3714521297953131e-01  7.0369861133261380e-01  1.4596714717583530e+00  1.4615444726303415e+00  6.8656593612883454e-01  1.3151157075005075e+00  1.4904189196470912e+00  8.3057556623922257e-01  3.1065785355652797e-01  1.3952961979042171e+00  1.2708358864218554e+00  3.1085717053446066e-01  2.9540304069779094e-01  1.2535313766290463e+00  1.1871783001159784e+00  1.4414447853284522e+00  1.4426111079942836e+00  1.0517756185098686e+00  1.1750572069842855e+00  1.4872415931048246e+00  1.4134878955065979e+00  1.4795237503466683e+00  8.7514621912321122e-01  8.6824232357815978e-01  1.1591409273312108e+00  1.4883780323288411e+00  1.4964702818388960e+00  9.5209254912500385e-01  2.8703039779875156e-01  2.5939851250715468e-01  1.2089028996779507e+00  1.4471291310807550e+00  9.4228328632518921e-01  7.8951992950959771e-01  1.4281641272369288e+00  8.2139935160937960e-01  1.4953968097693626e+00  1.3713326447724992e+00  5.7690445995984685e-01  2.7683318867400031e-01  2.5920490168919025e-01  6.8304758764766904e-01  1.4490495270596184e+00  1.2567324422860300e+00  1.2975821884931693e+00  1.3623100622671263e+00  5.6712485114132982e-01  3.0294515076256812e-01  1.4618946924623917e+00  1.4955931735302206e+00  2.3120875840686900e-01  7.0715850406445757e-01  1.3723918360609413e+00  1.1547327838766659e+00  1.0822880793457825e+00  1.2483048361310980e+00  1.3776837652533669e+00  4.0311921183562971e-01  4.1406049325125754e-01  1.0873402310511926e+00  9.1083188538986293e-01  1.1682786857636600e+00  1.0744129482049984e+00  1.3980676762228748e+00  7.4615311125303063e-01  6.8733161636235662e-01  5.7916137906131782e-01  3.0963344442213325e-01  5.0898263941556476e-01  7.3608007413350807e-01  7.4643466882876797e-01  1.1934524245589699e+00  2.4322886332523125e-01  3.2837818917806599e-01  5.7655186390608004e-01  7.1745379711401913e-01  2.4826435569767955e-01  3.0483176863662981e-01  8.6622130500888039e-01  8.6198720179136379e-01  4.7699025199042372e-01  7.9610340062628415e-01  9.9619218847400426e-01  1.0477764111941812e+00  9.6930015526358282e-01  1.4462890467131739e+00  1.4361809235601422e+00  1.4801878542564690e+00  1.1878093663788585e+00  1.0379792432953419e+00  2.0451905144028401e-01  1.0851871562817093e+00  1.2619627396028519e+00  5.9170982339779954e-01  9.3110108420211868e-01  1.1326380810917889e+00  1.0971266174488739e+00  1.3066145628991126e+00  1.3786462951594958e+00  1.4884517525673195e+00  8.4825996089680267e-01  1.4818833327711278e+00  5.9246826169774591e-01  7.7585034513407514e-01  1.4741171210102364e+00  1.3614629068538608e+00  1.1765780488665181e+00  1.9854694788344071e-01  1.4562448713183129e+00  1.4827438028123536e+00  1.4259051477717626e+00  1.2096246928694565e+00  1.4947689824440000e+00  1.2352615967899438e+00  1.0654017759027050e+00  8.5216149843882549e-01  1.8945323104323386e-01  1.4548780047146022e+00  1.4903426403030451e+00  1.4906054511722575e+00  1.4442212374245520e+00  1.4635175118981956e+00  1.9510123580777550e-01  7.5262381002681100e-01  1.9169662948562161e-01  1.3497525538531903e+00  1.8980715257827507e-01  8.7262411845928567e-01  1.4903440630741391e+00  1.8492571371936856e-01  1.2655469134111661e+00  1.0511310195506127e+00  1.0509744759239623e+00  5.0648672891433799e-01  1.3495239446960678e+00  1.4899686420371359e+00  1.4902556326156713e+00  1.4900045420516659e+00  1.8167082943325397e-01  2.3162647977071826e-01  1.9004950535075413e-01  1.4687481704508951e+00  1.4276979597797324e+00  1.0537229344535139e+00  5.9756040639606645e-01  1.8275061128243447e-01  8.0803183156240566e-01  1.2912115539003808e+00  7.8003739036344455e-01  1.4946026151834366e+00  1.4461876087662930e+00  5.5611853101861330e-01  6.8974242585913148e-01  1.4940984710061287e+00  1.4709036425310018e+00  1.3163018529065111e+00  1.4095880912092364e+00  1.8900722292484440e-01  1.3939298291657645e+00  1.2305687620032431e+00  1.3191198157771125e+00  1.3871706464785236e+00  1.2637220937818583e+00  1.4791680303986328e+00  1.4119219960221427e+00  8.4131637735302744e-01  5.4882161229030313e-01  1.3877526886402383e+00  1.4172576975549367e+00  9.7629289575288747e-01  1.3041890121390511e+00  9.7265206495071788e-01  1.4291897193818603e+00  1.4643959249131193e+00  1.4482770227951312e+00  1.3365731559022715e+00  1.4940369029410825e+00  7.6453442586698106e-01  2.8317923554784308e-01  1.3370508793216971e+00  4.1433231433861972e-01  1.3329983963986298e+00  1.1320133769580389e+00  1.2452936896240701e+00  1.3218439279279741e+00  1.0387332500309081e+00  1.4246419530166037e+00  1.3957994172106067e+00  1.2890055690166877e+00  1.1667261738616359e+00  1.4720340037643795e+00  0.0000000000000000e+00  1.4934068868568056e+00  1.4847453331716232e+00  1.1976257174496971e+00  1.1865504205977271e+00  5.7504207220589454e-01  1.4956273763406926e+00  1.4813063071577077e+00  8.9280997725639588e-01  1.1720811918573915e+00  1.3381788275416753e+00  9.3625817179823356e-01  1.0191982078710591e+00  0.0000000000000000e+00  1.4013470941516368e+00  1.8327002872727927e-01  5.2842819057386348e-01  1.4733999566507521e+00  4.6955157860168117e-01  2.3116588698731605e-01  8.9470251251063526e-01  1.2484706093657905e+00  1.3158902409475330e+00  2.0979842597732151e-01  1.0374588333088699e+00  4.7335002914483804e-01  6.0589469185963885e-01  1.2722298723247449e+00  1.4318103787908458e+00  6.0445045559146227e-01  1.4325715481533787e+00  1.8270972788120937e-01  1.3914440468475451e+00  1.3200183922163620e+00  5.8440271882131756e-01  9.5137376483335123e-01  8.3659516848181126e-01  1.4706923480752854e+00  5.6606321664267989e-01  5.8849617401858745e-01  9.4885367225216488e-01  0.0000000000000000e+00  1.3471844508606377e+00  0.0000000000000000e+00  9.8123497987876418e-01  1.2521174355691542e+00  1.3007464952162562e+00  1.0985575400362841e+00  1.4956863300957399e+00  1.4818262803678890e+00  1.4180269088627273e+00  1.2040741406207209e+00  1.3609243389502899e+00  0.0000000000000000e+00  2.1218110479532137e-01  9.1182273686044446e-01  1.8134491267730479e-01  7.2739632068584126e-01  1.1723681149893932e+00  4.0394925148797572e-01  1.0148040548002730e+00  7.8689377603233523e-01  6.3321168866747246e-01  3.1438631877454631e-01  0.0000000000000000e+00  4.6752102726786576e-01  4.7314785039171320e-01  5.0519711502774800e-01  1.4926197842499318e+00  0.0000000000000000e+00  9.8223681728178169e-01  7.9378412619851424e-01  1.4940634896487253e+00  1.3516625080198845e+00  1.4428245006646356e+00  1.4206054530438195e+00  1.3500622950822332e+00  1.4363365782326227e+00  1.4949869413325334e+00  6.8208535414366900e-01  1.0836114974989419e+00  8.4377719132855622e-01  1.1090875991292259e+00  1.4749940582028302e+00  1.4818667138896653e+00  0.0000000000000000e+00  9.7692643564403892e-01  2.0773616958537935e-01  2.5300794684123934e-01  1.1605264350971551e+00  1.2149596367020932e+00  1.4075898082569878e+00  2.3770697234474727e-01  7.3814878527773420e-01  1.4484949991021936e+00  1.3018507300130537e+00  1.4044137943663220e+00  1.1632555245224596e+00  1.4577380613849540e+00  1.4873975528803480e+00  1.2093009683859337e+00  1.8622571426574702e-01  2.0002572807320415e-01  2.0443431843876808e-01  1.4301092563656619e+00  5.4189756501572006e-01  1.2874017951119552e+00  1.4757726721008684e+00  1.4526490889797219e+00  1.4172316074691387e+00  9.1412674456106902e-01  1.1052282113427172e+00  4.5499541037251523e-01  1.9352729227894366e-01  1.4600381732403462e+00  1.2100181238213563e+00  1.2787683957478029e+00  1.3935093957697557e+00  1.3889050970758372e+00  1.3835983429672489e+00  1.1673683385294475e+00  1.1227612958334334e+00  1.2735536835908501e+00  1.8271065277157622e-01  0.0000000000000000e+00  1.1314059982191207e+00  1.4752895773692656e+00  1.4790522036300273e+00  1.4310894402213286e+00  5.4267794680084247e-01  2.0467339624294620e-01  1.4955666494134765e+00  6.9395799907799482e-01  7.2583065607334984e-01  1.2829780995980982e+00  1.3310534136428991e+00  6.5677806667229532e-01  5.3103187446603017e-01  7.9360096216487774e-01  8.2968471414923051e-01  1.4845235751446200e+00  6.1858879770928199e-01  8.1522983739157762e-01  8.2593142809834086e-01  1.3596810253791256e+00  9.5905250077886972e-01  9.8232993617717990e-01  1.3971758312282816e+00  1.3500541859851669e+00  7.4661519528825027e-01  1.1759607506789751e+00  3.7302579899969907e-01  1.1160793872319736e+00  1.4474452142597294e+00  1.9523785980270061e-01  4.4007821154346172e-01  1.4935225263213681e+00  4.6489679402263112e-01  5.6446968336781356e-01  4.4506863807393021e-01  8.7642963272277130e-01  1.3239893802857774e+00  1.4960854577269092e+00  5.4825994578608706e-01  1.3772153617972080e+00  1.4218709766818993e+00  1.0816706553084596e+00  1.0731970507788398e+00  6.2913278671936745e-01  1.0300038942454344e+00  1.0236401127838000e+00  1.4033080518482806e+00  1.4329946490263337e+00  1.2466577227902316e+00  1.4953387987461306e+00  8.9525268451919349e-01  1.4718325895728233e+00  1.3772371072102896e+00  4.6640679497673115e-01  1.3165365523498029e+00  7.7285295866924342e-01  1.4852174811852403e+00  8.3609789855575278e-01  1.9266935545432526e-01  3.9553386869918922e-01  5.1563222102682904e-01  6.6458425331815452e-01  1.4702997676820408e+00  1.4433208472410799e+00  1.4634699454598799e+00  1.0063724800327709e+00  1.3902228361690729e+00  1.3495515524031683e+00  1.2277641111075073e+00  1.2627695483798931e+00  1.4897251290512297e+00  0.0000000000000000e+00  1.0778683764617489e+00  9.5228104773460043e-01  7.3537808394400295e-01  6.1649276890142168e-01  8.7571858257829993e-01  7.6701678914950466e-01  1.4947404215858811e+00  5.7126858279808757e-01  1.3148975912423460e+00  9.2221261160813961e-01  9.9943527030179846e-01  1.1575530292983063e+00  0.0000000000000000e+00  5.0922340323536741e-01  4.8309544641896252e-01  7.9005674076271659e-01  7.3526892584553449e-01  7.8301458544292779e-01  1.2559081709487401e+00  1.1676699392768608e+00  1.3531635968203948e+00  1.3937905954334484e+00  7.7036758504118930e-01  0.0000000000000000e+00  1.8370816892542297e-01  4.3066620354286883e-01  1.4764360874800833e+00  5.4918077086506722e-01  1.0508084859943927e+00  1.4520005050448626e+00  1.4861031005132566e+00  7.5289311157685246e-01  1.1146703747600508e+00  8.3419740852350943e-01  2.9161137856517449e-01  1.4179473266666667e+00  1.3334346509950707e+00  1.4904083289231469e+00  1.4952924182190663e+00  2.5434380111548771e-01  7.9126510922799143e-01  1.9238552340359297e-01  1.4962606516326040e+00  2.4897484564823297e-01  1.4014161832211907e+00  1.0231843489762265e+00  7.8997806460555287e-01  0.0000000000000000e+00  0.0000000000000000e+00  0.0000000000000000e+00  1.8166180083690753e-01  0.0000000000000000e+00  0.0000000000000000e+00  1.3501320708035709e+00  5.0969047171548199e-01  0.0000000000000000e+00  0.0000000000000000e+00  1.3498803434211841e+00  0.0000000000000000e+00  0.0000000000000000e+00  1.4901205526614216e+00  1.4898651825113092e+00  1.4433132654464849e+00  1.4433030811833900e+00  1.4901388291067432e+00  1.4903367108078922e+00  0.0000000000000000e+00  1.2100072364840186e+00  0.0000000000000000e+00  0.0000000000000000e+00  1.0229500737193959e+00  0.0000000000000000e+00  0.0000000000000000e+00  5.0918335783379365e-01  0.0000000000000000e+00  0.0000000000000000e+00  7.8990224499081629e-01  0.0000000000000000e+00  5.0929687859053219e-01  1.8268768529709273e-01  0.0000000000000000e+00  1.4435068998496705e+00  0.0000000000000000e+00  1.0233736951753627e+00  0.0000000000000000e+00  1.2098533160470222e+00  7.8977951744518748e-01  1.1038905884890269e+00  1.2455534595157336e+00  4.3167302586815071e-01  1.1232521325672640e+00  1.1054531264715795e+00  1.2700246320946169e+00  1.2692778530323947e+00  1.1966935300948103e+00  1.0434595754972016e+00  1.0191445194992463e+00  1.2449524939788519e+00  1.5759416210216193e-01  1.0758530634283110e+00  9.2517094581815684e-01  1.1831811865407889e+00  1.4434029485897379e+00  1.3603911141770375e+00  1.4058126689066637e+00  1.4891001894249118e+00  1.5913992227678661e-01  1.0115697714309630e+00  1.1937699825316146e+00  1.4782799140481206e+00  1.4960318425012036e+00  1.2681808175105773e+00  1.4886391249280084e+00  1.4714129702311509e+00  1.4200325076776927e+00  1.2588441587504828e+00  1.4901272526936109e+00  1.4101028845899082e+00  1.1057922782891192e+00  1.4595804581197127e+00  1.4846604857886587e+00  7.9901939154040225e-01  1.4487000655480822e+00  1.3836512571868673e+00  1.2401389567840342e+00  1.3538024620444926e+00  1.4662518066910624e+00  1.1540411720985906e+00  9.7764021518407307e-01  1.4906077586736315e+00  9.6614638094849548e-01  1.3198594411029287e+00  1.3560254219875336e+00  1.4793220085155550e+00  7.5711551875569227e-01  1.4582936632672483e+00  1.4816498417105772e+00  1.4918064469778889e+00  1.4729630464050862e+00  1.2189655505851749e+00  1.3128877371555205e+00  1.2182343957639361e+00  1.0742612025501728e+00  1.1223967937850194e+00  4.5326439794617096e-01  1.2782181616313855e+00  1.2163103001011328e+00  1.3889773445972320e+00  4.5882335032638094e-01  3.5008303979651861e-01  1.0783205886286671e+00  1.1716612176330412e+00  1.3902479271026718e+00  5.0097393199078433e-01  8.5761314394570221e-01  1.3845791035743711e+00  1.3458138596281870e+00  1.2771239193592723e+00  4.9818166873001535e-01  7.5981549930468317e-01  6.4630396907680554e-01  4.3785319327050060e-01  1.4630243553665834e+00  1.0365762576389821e+00  1.2351672303404806e+00  1.4046314234801356e+00  1.0968198577382786e+00  1.1560294424143416e+00  1.3181352918366980e+00  1.5127911600798163e-01  1.4822677096295402e+00  1.4629512279608841e+00  1.4949437398155854e+00  1.4868509125297869e+00  1.3676224815870417e+00  1.2729664316334266e+00  3.7676663985127118e-01  1.4931207217967029e+00  1.3068549531898364e+00  1.3843384862648695e+00  7.9580390682269908e-01  6.3744886829839742e-01  9.8600529551920202e-01  4.6994326003400300e-01  6.0944379837933604e-01  6.3932225284879474e-01  1.2332168670713577e+00  4.9637784739665108e-01  1.7161966464003744e-01  1.4608941812147105e+00  1.8233087549652802e-01  1.2525324952192016e+00  1.4939628202959003e+00  9.7808809570064814e-01  9.1403143044069046e-01  1.3068737775044974e+00  1.4843858090853677e+00  8.9776926884494312e-01  1.4581248737469792e+00  1.6323876330679982e-01  3.7361776169248806e-01  2.6218252446047818e-01  9.7819065911136527e-01  9.0401733318223909e-01  1.0194995736552022e+00  1.5188156482666668e-01  7.8771598292374501e-01  1.1913693254684239e+00  3.3774197788537413e-01  1.4396731853622038e+00  1.7619370315156749e-01  4.8524584257838588e-01  7.0163595627142006e-01  6.0640470203892582e-01  4.6073493322996584e-01  1.3563414920141397e+00  1.13628