<?xml version="1.0"?>
<VTKFile type="UnstructuredGrid"  version="0.1"  >
<UnstructuredGrid>
<Piece  NumberOfPoints="2513" NumberOfCells="4852">
<Points>
<DataArray  type="Float64"  NumberOfComponents="3"  format="ascii">-1 1 0  -1 -1 0  1 -1 0  1 1 0  0 -1 0  1 0 0  0 1 0  -1 0 0  0 0 0  -1 -0.5 0  -0.5 -1 0  -0.5 1 0  -1 0.5 0  1 -0.5 0  0.5 -1 0  1 0.5 0  0.5 1 0  0.4166666666666666 -0.4166666666666667 0  -0.4166666666666667 0.4166666666666667 0  -0.25 -0.5 0  0.5 0.25 0  -0.4861111111111112 -0.06944444444444445 0  0.0732758620689655 0.507183908045977 0  -0.625 -0.625 0  0.625 0.625 0  0.7380952380952381 -0.25 0  -0.7099116161616161 0.2105429292929293 0  -0.25 0.7380952380952381 0  0.105392156862745 -0.6348039215686275 0  0.6770833333333334 -0.6770833333333333 0  -0.6770833333333334 0.6770833333333334 0  0.3472222222222222 -0.06944444444444446 0  -0.7264957264957265 -0.3044871794871795 0  0.3141940982507127 0.7297313660835709 0  0.02049587951122483 -0.3227479397556124 0  -0.2690972222222223 0.1475694444444444 0  0.3859500089908372 -0.7274430156831472 0  -0.2228477945123298 -0.1761765495248019 0  0.2182539682539683 0.1884920634920635 0  0.75 0.375 0  -0.145442219440968 -0.7602211097204841 0  0.7088913690476191 0.0427827380952381 0  -0.75 -1 0  -1 -0.75 0  1 0.75 0  0.75 1 0  -0.7439982703698937 -0.04614153195464455 0  -0.4609235096577606 -0.3356498099556895 0  0.4063134471431929 0.4895621842856023 0  0.25 -1 0  -0.25 -1 0  -0.75 1 0  0.75 -1 0  -1 -0.25 0  -1 0.25 0  1 -0.25 0  -0.25 1 0  1 -0.75 0  -1 0.75 0  0.25 1 0  1 0.25 0  -0.4041423272138783 -0.7597141090712928 0  0.06500839607911253 0.7578103030529481 0  -0.1572801182352047 0.3838997021864289 0  -0.6528005242053915 0.4409494757946086 0  -0.4930160984848485 0.1544744318181818 0  -0.4732142857142858 0.7752976190476191 0  0.6398809523809523 -0.4538690476190476 0  0.5166054117396399 -0.2161233620965164 0  -0.002273787244753427 0.2232363985975174 0  0.1500564496765022 -0.1524955293952667 0  0.2016720420046758 -0.4410343282803009 0  -0.08495178036419618 0.6274139771124571 0  -0.8367311471133162 0.3642591720794645 0  -0.8333333333333334 -0.625 0  -0.594323836800685 -0.8231079456002283 0  -0.4466957714776065 -0.5349126855671806 0  0.8125 0.5625 0  0.78125 0.78125 0  0.5091392650016769 0.7947130883338923 0  0.125 -0.8382681931833136 0  -0.8184523809523809 -0.8184523809523809 0  -0.07781530426104531 -0.5819319697006881 0  0.5085055196703295 0.04967610411902112 0  0.2918471072074933 -0.276017202318847 0  0.5120763537765269 -0.5898771553229597 0  0.625 -0.8585349462365591 0  0.8158532234335381 -0.8158532234335381 0  -0.5198088446315396 0.5739411553684605 0  -0.8585349462365591 0.625 0  -0.8150493805516597 0.8156205699829586 0  0.8585349462365591 -0.625 0  -0.2688268348649726 0.5439331383603209 0  0.8242100426758139 -0.4436043596336612 0  0.5833756314287952 0.4479378157143976 0  0.8690476190476191 -0.125 0  -0.125 0.8690476190476191 0  -0.8692745600729823 0.125 0  0.8696725120759167 0.125 0  -0.625 0.8711516477451908 0  0.2339522463269718 0.3879558377955778 0  0.2453709502295031 0.5655822922838026 0  0.1730610651637797 0.02021709580868947 0  0.3245402594056757 -0.5644672020485209 0  -0.7291666666666666 -0.4816595441595442 0  -1 -0.375 0  -0.5811140848639904 -0.2127276307675001 0  0.673332592838314 0.2158348143233718 0  0.375 1 0  -0.5714768890989919 0.2985103444040069 0  -1 -0.125 0  -0.8453692574786325 -0.1875 0  -0.3144549134065865 -0.02408675326008025 0  -0.2898414972096258 -0.3336092734780093 0  -0.1075052092206287 -0.4224330421314983 0  -0.05043970703604117 -0.1652278959397459 0  0.6459672950297897 -0.1113415301525317 0  0.4645210271029513 0.6398480556579343 0  0.3512863754411909 0.0937979496253573 0  -0.6063160985568274 0.03891469652249891 0  -0.3428819444444445 0.8690476190476191 0  0.625 1 0  -0.1602164796159982 0.02697860906625157 0  0.04648110064133829 -0.4808416424239687 0  1 0.875 0  -0.3836102479201657 0.6484936449177356 0  -0.3776011723096096 0.263078478984336 0  -0.6024978259969829 -0.3949628096211138 0  0.125 1 0  0.2010781308272777 0.8456221018461906 0  0.2822509696388829 -0.845902544691141 0  -0.3285533674953515 -0.6289773550938936 0  0.3461306793221754 0.278777492464833 0  0.4737475672408696 -0.8508448959534423 0  0.2384632828836344 -0.7029523187242811 0  -0.004777287059791593 0.3759269695907358 0  -0.8499735021850066 -0.3912320205328522 0  0.1222536293721587 0.2963971539625205 0  -0.3769456520999688 -0.203572526805711 0  -0.2749617205755651 -0.8464290792698902 0  0.004805888512766143 -0.747174355248311 0  -0.125 -1 0  -0.06001061822252458 -0.8724007765244854 0  0.875 0.4375 0  0.854421179608893 0.271342359217786 0  0.875 1 0  -0.1499861095763589 0.2358309656934888 0  0.3381943639137225 0.8663061796405532 0  -0.7853090110442228 0.4998412775277108 0  0.7398165998560814 -0.5535192694951373 0  0.1580042122341573 -0.3100246140259917 0  -0.7291666666666667 -0.7142857142857142 0  -0.375 -1 0  0.6483368386154684 0.8514905990110488 0  -0.1295370103291928 -0.2826118305021242 0  0.07458201853700455 0.1123894386563915 0  0.6146465857036327 -0.3161203659316075 0  0.5551898493894731 -0.740296118159085 0  0.375 -1 0  0.482702798370208 -0.084133350091034 0  0.87890625 0.68359375 0  -0.05917195534525846 0.4971092425697621 0  0.1260710309213975 0.6343750312956699 0  0.8690476190476191 -0.3077066815262848 0  -0.2912010232560567 0.3668168386732139 0  -0.875 1 0  -1 0.875 0  1 -0.875 0  0.875 -1 0  -0.8689564281364567 -0.006189266075306407 0  -0.7449425635110547 0.08458938160051771 0  -0.7150266761936593 -0.1739444581417552 0  -0.5260034831318311 -0.711099823962112 0  -0.4724626808827322 -0.871722230709409 0  0.4734436795977052 0.377714794132168 0  -0.875 -1 0  -1 -0.875 0  0.6927189078571988 0.5156567235715964 0  -0.3742497615796874 -0.4296005251260107 0  -0.1969436423297711 -0.6387157229772615 0  -0.6179496409766825 -0.08933356056510935 0  -0.424405057115988 0.04452428810878029 0  -0.08479048335844169 0.1279607007132633 0  0.003830300099055113 0.8712085230656206 0  0.8748778838820267 -1.379218479898026e-05 0  -0.375 1 0  -0.625 1 0  1 0.125 0  -0.125 1 0  1 -0.375 0  1 -0.125 0  1 -0.625 0  0.625 -1 0  0.125 -1 0  -0.625 -1 0  -1 -0.625 0  -1 0.125 0  -1 0.375 0  -1 0.625 0  1 0.375 0  1 0.625 0  0.6325660748712082 0.3335187599557389 0  -0.06420945895056573 0.7549874027425891 0  -0.8769015540914771 0.2478802253893416 0  0.871875 0.871875 0  -0.6868091492840067 0.3270978624973681 0  -0.5363597469565949 0.412994850055505 0  -0.6803734992638302 0.5574295000651103 0  -0.7076253581162534 -0.8803439094224437 0  -0.8778089002295137 -0.5106896447504627 0  -0.3860184984222981 0.530566778071246 0  0.6109900617121508 0.1128453077697081 0  0.3896945134930274 -0.1915382873255086 0  0.7605656944697778 -0.06822134873122943 0  0.3576151269893478 0.5948388411612135 0  -0.5689902680792265 -0.5143596830118065 0  0.6262446286847614 -0.5735657901943212 0  0.2030558252325225 -0.5625263842513452 0  0.6123273142928579 0.7407533260723429 0  0.4016460890123554 -0.3042863223111857 0  -0.59039693199147 0.7578418819188018 0  0.7276932493917544 -0.3705808024528924 0  0.5222536818742854 -0.4713886230400014 0  -0.5101986527137737 0.8848365765607674 0  0.510560172809238 0.5356013299918891 0  -0.3603569195756083 0.75823710606415 0  0.1967279277813232 0.728226870058472 0  -0.6086880986371127 0.1545624071548516 0  -0.38105366729386 0.1511189987807864 0  -0.2944659463671584 -0.7359061804869591 0  0.5060729154966499 -0.3475227845833823 0  -0.09281616240412746 -0.06197858250969457 0  0.7649739583333334 0.6673177083333334 0  0.7628906249999999 0.890234375 0  -0.2666864184909611 0.2585504071132311 0  0.3635064892129658 0.3878003602709461 0  -0.2339409722222222 0.8901937905844155 0  -0.1718792125974916 -0.8957733325456778 0  0.1001768566329531 0.4023510017391879 0  0.3120260172693757 -0.4540546875576884 0  0.7804062804433681 0.1896628610854537 0  0.4087715451998049 0.187961780041608 0  -0.1584963477271457 0.5451611892421655 0  -0.8926817849258324 0.463022006336401 0  0.2338091473445219 -0.07576267331277289 0  0.08171112182813692 -0.2349087687359925 0  0.04635385178956847 -0.1044635073718474 0  -0.4377391632114205 -0.6448874471423088 0  -0.1907678351227189 0.6480215912813945 0  0.300605946475244 0.4741444604171038 0  -0.2145033720757486 -0.06751709909419711 0  0.6069191921170397 -0.005492331448357812 0  0.0214718770761248 0.6032397936031719 0  0.5476675683364878 0.8992752415326501 0  0.4387475014316537 0.9093708953002239 0  -0.4932997685306436 -0.4381009159993523 0  0.2515197695339056 -0.1791673369138964 0  -0.7291666666666667 -0.6088789682539681 0  -0.9166666666666667 -0.6875 0  0.620579540363709 -0.2122431523583302 0  -0.484950136419973 0.6719440339397442 0  0.2857044415400258 0.0137589173127316 0  -0.8945708364098356 -0.288306105327986 0  0.4043102720140535 0.7842914560451557 0  0.04123256238752064 -0.9026968245801402 0  0.2003676884403109 -0.9091888601740487 0  0.1068775558538842 -0.7373377130403223 0  -0.4804566783514427 -0.1763307203045643 0  0.108286342087769 -0.3993789328997278 0  -0.191883080105361 -0.3640821726430649 0  -0.07025064492006244 0.2984876656890053 0  -0.7039324641409584 0.788312126296613 0  -0.7311286585775438 0.8932502354831682 0  0.5171409396884947 0.1503852691889257 0  0.4229392823658633 -0.003216522184234835 0  -0.5621736087218259 -0.919558629836806 0  -0.626474064879544 -0.7266572613636506 0  0.2446828746617422 0.2867616783302419 0  0.1759429608742923 0.4776611759306416 0  -0.3468240303741654 -0.5260416435617549 0  -0.7465808808425306 0.4069574477998361 0  -0.7819962170660292 0.2802441065650652 0  -0.3742623214119594 -0.8547800509641984 0  0.1014498009713561 0.8506721983266377 0  0.4285217620918213 -0.5230190595570253 0  0.4091738370487775 -0.6256346204225141 0  0.78125 0.46875 0  0.90625 0.53125 0  -0.4791801348852565 0.2553992655702126 0  0.7843318610782772 -0.7086046956885941 0  0.8909728264971901 -0.7355183796514634 0  0.7041908166528879 -0.7830649143180282 0  0.7311821352
[...]
<PointData  Scalars="velocity-2"> 
<DataArray  type="Float64"  Name="velocity-2"  format="ascii">0.0000000000000000e+00  0.0000000000000000e+00  0.0000000000000000e+00  0.0000000000000000e+00  0.0000000000000000e+00  1.4624759580764148e+00  0.0000000000000000e+00  1.4624391227370330e+00  1.4613125108359060e+00  1.0988494464220970e+00  0.0000000000000000e+00  0.0000000000000000e+00  1.0982453018332365e+00  1.0989855829496304e+00  0.0000000000000000e+00  1.0986270775312281e+00  0.0000000000000000e+00  1.2098629683230337e+00  1.2096153558656701e+00  1.0994161321273244e+00  1.3710153773036267e+00  1.4553441306504300e+00  1.0877521507594734e+00  8.9394573108659614e-01  8.9427139021153168e-01  1.3714209594849147e+00  1.3973838215671943e+00  6.6949841545751143e-01  8.7623711810249572e-01  7.9557360045265801e-01  7.9603553968944418e-01  1.4549981830874970e+00  1.3274254368326079e+00  6.8781836577697197e-01  1.3102887196010393e+00  1.4303954190408588e+00  6.9248619422229685e-01  1.4158438101403434e+00  1.4100300909130010e+00  1.2568948080178475e+00  6.2113017578034735e-01  1.4592852303119761e+00  0.0000000000000000e+00  6.4442830643641535e-01  6.4468695200520776e-01  0.0000000000000000e+00  1.4592688440402490e+00  1.2973340709399548e+00  1.1129216128128856e+00  0.0000000000000000e+00  0.0000000000000000e+00  0.0000000000000000e+00  0.0000000000000000e+00  1.3713751553899727e+00  1.3714228433825224e+00  1.3712971011533897e+00  0.0000000000000000e+00  6.4449896567940779e-01  6.4441783017140353e-01  0.0000000000000000e+00  1.3716002165235965e+00  6.2281516194223363e-01  6.2688152079766535e-01  1.2477168440583344e+00  1.1791985432778753e+00  1.4267927033986760e+00  5.8792147389699390e-01  1.1619972312018962e+00  1.3948345454589204e+00  1.3896789438261019e+00  1.4278937952480684e+00  1.1791591989072467e+00  8.8963064303612227e-01  1.2692583698975908e+00  8.9436544621572034e-01  4.7572389360998557e-01  1.0463511082982946e+00  1.0021692611092741e+00  5.7412742719441034e-01  5.4291057621937699e-01  4.3862704611027037e-01  4.8773473755310653e-01  9.6966176377559965e-01  1.4583968756740702e+00  1.3511266686332988e+00  9.5591846217241305e-01  3.8851891274206135e-01  4.9392172170304133e-01  9.8276031112114470e-01  8.9423576965793627e-01  4.9390334518552953e-01  8.9448271735088469e-01  1.0323226029379191e+00  1.1759833270920645e+00  1.1696687083978494e+00  1.4391826521481199e+00  3.6163294661631046e-01  1.4396345342419878e+00  1.4393587204290395e+00  3.5618217005964581e-01  1.2430081851375125e+00  9.9685284277363151e-01  1.4616333615641623e+00  9.9863152930286403e-01  1.1248685032570036e+00  1.2578570097427788e+00  1.3969018409881784e+00  1.3942089173657031e+00  0.0000000000000000e+00  1.3318537560688382e+00  1.4397930212901870e+00  1.4106587420158694e+00  1.4604801152953533e+00  1.3002634659631849e+00  1.2021957829977334e+00  1.4226805295229057e+00  1.4437072341573647e+00  8.6695795492538519e-01  1.4490819312344632e+00  1.4598737575650884e+00  3.6118630181278472e-01  0.0000000000000000e+00  1.4618772829028539e+00  1.1254169605596580e+00  3.4674910346284493e-01  8.5087543077988292e-01  1.3606021198857381e+00  1.2354269852133342e+00  0.0000000000000000e+00  4.2104197492021445e-01  4.1974501405648051e-01  8.8712310518749771e-01  1.3490628864161018e+00  4.0793144354920979e-01  7.4305815872226444e-01  1.2566382075937750e+00  1.2393109056451119e+00  1.3345232327306569e+00  1.4010857445631117e+00  4.1905888108823214e-01  6.5025159633222018e-01  0.0000000000000000e+00  3.5297679871375326e-01  1.1837813270529141e+00  1.3551413738074534e+00  0.0000000000000000e+00  1.3813896017950986e+00  3.6881427349884455e-01  1.0990181305085964e+00  1.0162640982645157e+00  1.3222473042241651e+00  7.2038341219494895e-01  0.0000000000000000e+00  4.0525685457554012e-01  1.3457823514853311e+00  1.4436675854995915e+00  1.3169612537958764e+00  6.6502013044190178e-01  0.0000000000000000e+00  1.4514983023453616e+00  7.8290955762012637e-01  1.1029091651793157e+00  8.7697091505630509e-01  1.3243698602141163e+00  1.2663157819995516e+00  0.0000000000000000e+00  3.4731011448332699e-01  3.4676419332357761e-01  0.0000000000000000e+00  1.4621296574523457e+00  1.4507987078991387e+00  1.4176483617189213e+00  7.2622165462698585e-01  3.5497608851189638e-01  1.2534795219748569e+00  0.0000000000000000e+00  3.4687320260480980e-01  1.0756455473792497e+00  1.1937973205289107e+00  8.6911118619862604e-01  1.4507195131813595e+00  1.4588252339747239e+00  1.4380367424675888e+00  3.5689301117729999e-01  1.4619101689907394e+00  0.0000000000000000e+00  0.0000000000000000e+00  1.4399303448799254e+00  0.0000000000000000e+00  1.2578041344992306e+00  1.4397915969569830e+00  8.9421252973903564e-01  0.0000000000000000e+00  0.0000000000000000e+00  0.0000000000000000e+00  8.9433958866013707e-01  1.4395699133255286e+00  1.2576302635534540e+00  8.9468145577200131e-01  1.2579854973028313e+00  8.9445035404164741e-01  1.3003583788301694e+00  6.3319081128376420e-01  1.3729447847262917e+00  3.5391452574552362e-01  1.3065917585024511e+00  1.2139771307931007e+00  1.0103517594354783e+00  3.3363819302127184e-01  1.0829233745634708e+00  1.0523743704320960e+00  1.4435331044291186e+00  1.4087850233413637e+00  1.4552367217700732e+00  9.4733051953061909e-01  1.0774216338658091e+00  9.8333561620590682e-01  1.0017518118884963e+00  6.6431898714926274e-01  1.3273305043051866e+00  6.2683763995442399e-01  1.2618745691194853e+00  1.1393807643550464e+00  3.2145398834108008e-01  1.0446797426286338e+00  6.2643092527263133e-01  6.9128936442602085e-01  1.4269509511163463e+00  1.4288475693019427e+00  6.7451867233818952e-01  1.2865114509008853e+00  1.4567450488691489e+00  8.1473258721994579e-01  3.0668221973270815e-01  1.3643915065536398e+00  1.2434277231509621e+00  3.0695753184160013e-01  2.9166747667254816e-01  1.2264712768869250e+00  1.1618549508800498e+00  1.4092807779089302e+00  1.4104716204594800e+00  1.0299232059968195e+00  1.1500236832149324e+00  1.4537646359256937e+00  1.3820630614797467e+00  1.4461941453064104e+00  8.5805376608782225e-01  8.5155808111052811e-01  1.1344704686530314e+00  1.4547881385649228e+00  1.4628611144785819e+00  9.3313577845677154e-01  2.8346526805191585e-01  2.5619960004612979e-01  1.1830546406132298e+00  1.4147545027167228e+00  9.2342691504006125e-01  7.7483748461605484e-01  1.3964332698378068e+00  8.0580947934572955e-01  1.4617334710595387e+00  1.3411371761704411e+00  5.6773611928320089e-01  2.7336867255123631e-01  2.5600349857728005e-01  6.7112193457848701e-01  1.4166832565890648e+00  1.2296887590933885e+00  1.2692933237578130e+00  1.3323891491569950e+00  5.5812185801434222e-01  2.9917290699231680e-01  1.4290743242321740e+00  1.4620571719450444e+00  2.2836387550811726e-01  6.9462832791845719e-01  1.3421233566166884e+00  1.1303851158931226e+00  1.0596070977220420e+00  1.2214969826239845e+00  1.3472998794325857e+00  3.9743104777111671e-01  4.0834995448740646e-01  1.0646172972791224e+00  8.9284117446374189e-01  1.1434602138681946e+00  1.0520591786239941e+00  1.3670941063330029e+00  7.3244559242833629e-01  6.7537889362310088e-01  5.6986409359380585e-01  3.0563557870904162e-01  5.0127597877725205e-01  7.2286074138073653e-01  7.3288762807873886e-01  1.1680333916717811e+00  2.4025296927196935e-01  3.2414595447973837e-01  5.6728829204902642e-01  7.0473629945617644e-01  2.4526069769119044e-01  3.0097440649185475e-01  8.4948702855935143e-01  8.4536992963869195e-01  4.6988065899702319e-01  7.8119524096646031e-01  9.7589386229788300e-01  1.0260440455347106e+00  9.4992229658376603e-01  1.4139697032267553e+00  1.4042154536144140e+00  1.4468110129116898e+00  1.1625026806974630e+00  1.0165870677065403e+00  2.0205300550964650e-01  1.0624649264342514e+00  1.2347118538914725e+00  5.8208641198060762e-01  9.1252250544530444e-01  1.1086647135649439e+00  1.0742175468606980e+00  1.2782611064757885e+00  1.3482626988914788e+00  1.4549126479116565e+00  8.3200631997388619e-01  1.4487170998209107e+00  5.8290929144452941e-01  7.6144319021693718e-01  1.4408743218856448e+00  1.3315142110137361e+00  1.1515143269154275e+00  1.9620242998105053e-01  1.4235889797323116e+00  1.4493455743923296e+00  1.3940715786618099e+00  1.1837290747100484e+00  1.4611092412900575e+00  1.2086796944981957e+00  1.0432263790481475e+00  8.3571518598837191e-01  1.8726108286407853e-01  1.4223714282106679e+00  1.4567574192491952e+00  1.4570143019303128e+00  1.4119430989937012e+00  1.4307229366430614e+00  1.9282327891685447e-01  7.3900697492866108e-01  1.8949344995657660e-01  1.3201246534407760e+00  1.8762152738112561e-01  8.5572945774546272e-01  1.4566517420635425e+00  1.8271894357791868e-01  1.2381222377232204e+00  1.0293861551242856e+00  1.0291983461952499e+00  4.9884199971156157e-01  1.3199149695814518e+00  1.4563957473862568e+00  1.4566510529878094e+00  1.4563282652957896e+00  1.7958590981129222e-01  2.2881138991476879e-01  1.8781744097303782e-01  1.4358199543125671e+00  1.3959610941248179e+00  1.0319062189334105e+00  5.8775727425551183e-01  1.8056714128742687e-01  7.9285828528603575e-01  1.2630658816472116e+00  7.6580607505111065e-01  1.4607962005975821e+00  1.4138559284007817e+00  5.4738065739291508e-01  6.7760598818559892e-01  1.4604007305205786e+00  1.4377661225631324e+00  1.2874960777061988e+00  1.3784031964603400e+00  1.8680877823983635e-01  1.3631342244424163e+00  1.2041776886871347e+00  1.2903131957546390e+00  1.3565923005819183e+00  1.2364553851967797e+00  1.4457923787200240e+00  1.3805156180695224e+00  8.2526020769839781e-01  5.4020880945102501e-01  1.3570795835129947e+00  1.3857895894043142e+00  9.5654269806533898e-01  1.2758124643256601e+00  9.5296815182602890e-01  1.3973603367906215e+00  1.4316275960685265e+00  1.4157400063209242e+00  1.3071660801586680e+00  1.4603713894948551e+00  7.5062347181077060e-01  2.7968970403808457e-01  1.3078191015514078e+00  4.0847439958678888e-01  1.3038601817205138e+00  1.1081268926765306e+00  1.2185321092143189e+00  1.2929613101269366e+00  1.0174076581438460e+00  1.3929466455092845e+00  1.3649138327849675e+00  1.2611385742654975e+00  1.1419357785221416e+00  1.4390484452010275e+00  0.0000000000000000e+00  1.4597800854943863e+00  1.4513015965400753e+00  1.1719815174148496e+00  1.1612195065640492e+00  5.6582776784312838e-01  1.4618885752166932e+00  1.4480115271749561e+00  8.7522815724240899e-01  1.1470932597571522e+00  1.3089968084778569e+00  9.1754321818826479e-01  9.9834121931419406e-01  0.0000000000000000e+00  1.3703251926049365e+00  1.8111137725586007e-01  5.2033964637193353e-01  1.4403982324222870e+00  4.6260301145722615e-01  2.2834711341377803e-01  8.7709781187106861e-01  1.2215395590828559e+00  1.2871271468782330e+00  2.0727182389620760e-01  1.0160986569871606e+00  4.6638631442835921e-01  5.9587774904110591e-01  1.2446989109900235e+00  1.3999131452845575e+00  5.9445152655056743e-01  1.4005192690159312e+00  1.8058424487850611e-01  1.3606452993648024e+00  1.2912041074445801e+00  5.7495608182826619e-01  9.3232769599925125e-01  8.2067807904315493e-01  1.4376709476836704e+00  5.5713608815539084e-01  5.7897370444424656e-01  9.2983476537518672e-01  0.0000000000000000e+00  1.3176210187996833e+00  0.0000000000000000e+00  9.6139058459039983e-01  1.2250701267879176e+00  1.2724850676209600e+00  1.0755955570739160e+00  1.4619226450638090e+00  1.4484897179833958e+00  1.3865585862888079e+00  1.1783606047873985e+00  1.3311274306568039e+00  0.0000000000000000e+00  2.0970030562605724e-01  8.9388416372841439e-01  1.7921191512617746e-01  7.1431971692242979e-01  1.1473871946373742e+00  3.9834220977892876e-01  9.9397314164718886e-01  7.7230135802512079e-01  6.2254337689951489e-01  3.1034813976936865e-01  0.0000000000000000e+00  4.6068931332927660e-01  4.6621029822281157e-01  4.9753999817885680e-01  1.4590456410647015e+00  0.0000000000000000e+00  9.6220644115152565e-01  7.7888938904263505e-01  1.4603053601679155e+00  1.3219676508715750e+00  1.4105470960947522e+00  1.3890674850155755e+00  1.3204680747616329e+00  1.4043488013657406e+00  1.4612846261880159e+00  6.7027647025709280e-01  1.0609902684190637e+00  8.2754763926447672e-01  1.0857617589920932e+00  1.4418198191990581e+00  1.4485494284917799e+00  0.0000000000000000e+00  9.5715793718302744e-01  2.0531295342188072e-01  2.4989926878827845e-01  1.1361351654105840e+00  1.1888519558599908e+00  1.3763845516966839e+00  2.3477317219920441e-01  7.2481973989271753e-01  1.4160277804096648e+00  1.2735642934484039e+00  1.3733182070341305e+00  1.1385668657637735e+00  1.4251369478963558e+00  1.4538071961029675e+00  1.1834039545496216e+00  1.8403735135982704e-01  1.9772065909140607e-01  2.0199380422782123e-01  1.3982451823658530e+00  5.3344667712390381e-01  1.2593666208916965e+00  1.4426731995083959e+00  1.4202521750032409e+00  1.3857631430254322e+00  8.9606907662135282e-01  1.0820742324275505e+00  4.4838675446245591e-01  1.9119841147831931e-01  1.4273035107116292e+00  1.1840980399575629e+00  1.2510234437994843e+00  1.3627309888323238e+00  1.3583196398289479e+00  1.3529544296747174e+00  1.1425851698751466e+00  1.0991310067179820e+00  1.2459841073729852e+00  1.8064047345394055e-01  0.0000000000000000e+00  1.1075020930044046e+00  1.4421481407929939e+00  1.4457533377762632e+00  1.3992349801035038e+00  5.3426059015612437e-01  2.0224816203137633e-01  1.4619541909886125e+00  6.8179371382417897e-01  7.1286163929492008e-01  1.2552877050344777e+00  1.3020044039941594e+00  6.4544640641576745e-01  5.2287674469179246e-01  7.7893122073040122e-01  8.1384145015107079e-01  1.4511143951534671e+00  6.0836696352688424e-01  7.9981490029290603e-01  8.1032796580734590e-01  1.3297649909432550e+00  9.3973040985476075e-01  9.6250397006526789e-01  1.3662786634144690e+00  1.3204301462034476e+00  7.3301403867722059e-01  1.1509277292173556e+00  3.6798409908057933e-01  1.0926271159478487e+00  1.4151271882519965e+00  1.9298983561857194e-01  4.3378697833019225e-01  1.4597562879225194e+00  4.5822533808525473e-01  5.5551986363748318e-01  4.3874659247478720e-01  8.5939996911323024e-01  1.2950511919921046e+00  1.4622365799959567e+00  5.3960585024466989e-01  1.3467698559905166e+00  1.3902473975156178e+00  1.0590280016536715e+00  1.0510611109311565e+00  6.1857091258539920e-01  1.0087770472426780e+00  1.0025997757318204e+00  1.3723267557305470e+00  1.4011069735790092e+00  1.2199395362986236e+00  1.4616317213146182e+00  8.7762008380753853e-01  1.4387969994514531e+00  1.3468931197640148e+00  4.5968399190971465e-01  1.2879189458637519e+00  7.5868556296940448e-01  1.4517300600514338e+00  8.2016411619822538e-01  1.9036312191238694e-01  3.9008058034571447e-01  5.0770677756571370e-01  6.5317535670572757e-01  1.4372392484382426e+00  1.4110687093786054e+00  1.4306966158988959e+00  9.8584288927100738e-01  1.3595018003440982e+00  1.3199587571012836e+00  1.2013010070596390e+00  1.2354480894979463e+00  1.4562107770778152e+00  0.0000000000000000e+00  1.0554048164072354e+00  9.3326180673958625e-01  7.2221976556873391e-01  6.0621319985826605e-01  8.5865874194081782e-01  7.5298444857630642e-01  1.4610848265122518e+00  5.6210107139655940e-01  1.2862333855451740e+00  9.0393096957892261e-01  9.7902605756306382e-01  1.1330008564868010e+00  0.0000000000000000e+00  5.0149643913051334e-01  4.7588116876696540e-01  7.7537117315317539e-01  7.2204048304602564e-01  7.6856310398155558e-01  1.2288135879503645e+00  1.1429023933477522e+00  1.3233425939921781e+00  1.3629131019485450e+00  7.5616714934329932e-01  0.0000000000000000e+00  1.8155194515906781e-01  4.2452000925313804e-01  1.4430471510260932e+00  5.4053716659356599e-01  1.0290873244946013e+00  1.4195248072236453e+00  1.4525836702329551e+00  7.3921562839886412e-01  1.0912505829869230e+00  8.1835916801912978e-01  2.8796929980857011e-01  1.3864109967657150e+00  1.3042960490733739e+00  1.4568163128459068e+00  1.4615209692030329e+00  2.5123477913119319e-01  7.7639331787879773e-01  1.9007314144419085e-01  1.4624758348730045e+00  2.4595743881046037e-01  1.3703754875863121e+00  1.0021688054141973e+00  7.7531077756609657e-01  0.0000000000000000e+00  0.0000000000000000e+00  0.0000000000000000e+00  1.7955672273078518e-01  0.0000000000000000e+00  0.0000000000000000e+00  1.3205047048954914e+00  5.0199411909723235e-01  0.0000000000000000e+00  0.0000000000000000e+00  1.3202668253629017e+00  0.0000000000000000e+00  0.0000000000000000e+00  1.4565470190917991e+00  1.4562715179925816e+00  1.4110722928371131e+00  1.4110747855161181e+00  1.4565327136922284e+00  1.4567399578288209e+00  0.0000000000000000e+00  1.1840944710597059e+00  0.0000000000000000e+00  0.0000000000000000e+00  1.0019519903459646e+00  0.0000000000000000e+00  0.0000000000000000e+00  5.0146502337863019e-01  0.0000000000000000e+00  0.0000000000000000e+00  7.7520921205428361e-01  0.0000000000000000e+00  5.0157470425584716e-01  1.8059749030343469e-01  0.0000000000000000e+00  1.4112727129023941e+00  0.0000000000000000e+00  1.0023369413941261e+00  0.0000000000000000e+00  1.1839618653372770e+00  7.7508046449315016e-01  1.0806593090327374e+00  1.2187049482295322e+00  4.2557240154567566e-01  1.0995376398315129e+00  1.0822339163320105e+00  1.2425361301801845e+00  1.2417349454826563e+00  1.1711157802691425e+00  1.0218423101522895e+00  9.9824331537767286e-01  1.2181280947479518e+00  1.5580528845809677e-01  1.0534011057672792e+00  9.0695426976225657e-01  1.1579594583713564e+00  1.4111758829184500e+00  1.3305649046705299e+00  1.3746234332030374e+00  1.4555305579865134e+00  1.5735879836443822e-01  9.9085173062081666e-01  1.1682298138555458e+00  1.4450646980921760e+00  1.4623015352735855e+00  1.2406868852512407e+00  1.4551725581235841e+00  1.4383999235792089e+00  1.3885017945647105e+00  1.2316382493946396e+00  1.4565580997298431e+00  1.3787670324977312e+00  1.0826200002684840e+00  1.4268599762966969e+00  1.4512539832537805e+00  7.8401848640828231e-01  1.4162154413311672e+00  1.3531347353159733e+00  1.2133841037867594e+00  1.3241519468501453e+00  1.4334188453203840e+00  1.1296314563859411e+00  9.5793495318528532e-01  1.4568925181020662e+00  9.4664874966292012e-01  1.2910157630450891e+00  1.3262473459927824e+00  1.4460180438407810e+00  7.4330654852825440e-01  1.4256467881087078e+00  1.4482904887840045e+00  1.4582491461789313e+00  1.4399006138356836e+00  1.1927416130177362e+00  1.2843272801412950e+00  1.1921986980815968e+00  1.0520435763178155e+00  1.0988575043293993e+00  4.4672434144221362e-01  1.2505737078505195e+00  1.1902385948939378e+00  1.3582686167493252e+00  4.5214509152455662e-01  3.4546484642372921e-01  1.0558555393330273e+00  1.1467726641472933e+00  1.3594168407216682e+00  4.9342931805427559e-01  8.4104637124718040e-01  1.3539766073423178e+00  1.3162934838099625e+00  1.2495413737940235e+00  4.9073540351467554e-01  7.4585318328177075e-01  6.3546914832674839e-01  4.3165747293655110e-01  1.4301328508096356e+00  1.0152536965986962e+00  1.2085720317309880e+00  1.3735152655775107e+00  1.0738528877744355e+00  1.1315273687378118e+00  1.2893553058527201e+00  1.4960902592068528e-01  1.4489276895780818e+00  1.4300700159639266e+00  1.4612168820237819e+00  1.4534617245456842e+00  1.3374416321675637e+00  1.2454617404551087e+00  3.7164415316941740e-01  1.4594773312232836e+00  1.2784112785035340e+00  1.3537445122884477e+00  7.8093081521342178e-01  6.2671034001381509e-01  9.6599170187324779e-01  4.6292892349843207e-01  5.9928530459324136e-01  6.2852669802246341e-01  1.2066038142701598e+00  4.8889942222048938e-01  1.6961573217183037e-01  1.4281209259887027e+00  1.8019640663870332e-01  1.2254660075297450e+00  1.4601926985402538e+00  9.5828040704766326e-01  8.9594864381328598e-01  1.2784710788517695e+00  1.4509601028726029e+00  8.8015641825741930e-01  1.4254846806982731e+00  1.6133024942207616e-01  3.6862958435513310e-01  2.5895535805002123e-01  9.5845340619721886e-01  8.8624651152634337e-01  9.9856355594937507e-01  1.5011477713977980e-01  7.7311608901317486e-01  1.1659275567884226e+00  3.3337638619704751e-01  1.4075048427358197e+00  1.7419222735524689e-01  4.7809158419369391e-01  6.8914526907277185e-01  5.9639845779306488e-01  4.5404742656335795e-01  1.3266011992615920e+00  1.11228