<?xml version="1.0"?>
<VTKFile type="UnstructuredGrid"  version="0.1"  >
<UnstructuredGrid>
<Piece  NumberOfPoints="2513" NumberOfCells="4852">
<Points>
<DataArray  type="Float64"  NumberOfComponents="3"  format="ascii">-1 1 0  -1 -1 0  1 -1 0  1 1 0  0 -1 0  1 0 0  0 1 0  -1 0 0  0 0 0  -1 -0.5 0  -0.5 -1 0  -0.5 1 0  -1 0.5 0  1 -0.5 0  0.5 -1 0  1 0.5 0  0.5 1 0  0.4166666666666666 -0.4166666666666667 0  -0.4166666666666667 0.4166666666666667 0  -0.25 -0.5 0  0.5 0.25 0  -0.4861111111111112 -0.06944444444444445 0  0.0732758620689655 0.507183908045977 0  -0.625 -0.625 0  0.625 0.625 0  0.7380952380952381 -0.25 0  -0.7099116161616161 0.2105429292929293 0  -0.25 0.7380952380952381 0  0.105392156862745 -0.6348039215686275 0  0.6770833333333334 -0.6770833333333333 0  -0.6770833333333334 0.6770833333333334 0  0.3472222222222222 -0.06944444444444446 0  -0.7264957264957265 -0.3044871794871795 0  0.3141940982507127 0.7297313660835709 0  0.02049587951122483 -0.3227479397556124 0  -0.2690972222222223 0.1475694444444444 0  0.3859500089908372 -0.7274430156831472 0  -0.2228477945123298 -0.1761765495248019 0  0.2182539682539683 0.1884920634920635 0  0.75 0.375 0  -0.145442219440968 -0.7602211097204841 0  0.7088913690476191 0.0427827380952381 0  -0.75 -1 0  -1 -0.75 0  1 0.75 0  0.75 1 0  -0.7439982703698937 -0.04614153195464455 0  -0.4609235096577606 -0.3356498099556895 0  0.4063134471431929 0.4895621842856023 0  0.25 -1 0  -0.25 -1 0  -0.75 1 0  0.75 -1 0  -1 -0.25 0  -1 0.25 0  1 -0.25 0  -0.25 1 0  1 -0.75 0  -1 0.75 0  0.25 1 0  1 0.25 0  -0.4041423272138783 -0.7597141090712928 0  0.06500839607911253 0.7578103030529481 0  -0.1572801182352047 0.3838997021864289 0  -0.6528005242053915 0.4409494757946086 0  -0.4930160984848485 0.1544744318181818 0  -0.4732142857142858 0.7752976190476191 0  0.6398809523809523 -0.4538690476190476 0  0.5166054117396399 -0.2161233620965164 0  -0.002273787244753427 0.2232363985975174 0  0.1500564496765022 -0.1524955293952667 0  0.2016720420046758 -0.4410343282803009 0  -0.08495178036419618 0.6274139771124571 0  -0.8367311471133162 0.3642591720794645 0  -0.8333333333333334 -0.625 0  -0.594323836800685 -0.8231079456002283 0  -0.4466957714776065 -0.5349126855671806 0  0.8125 0.5625 0  0.78125 0.78125 0  0.5091392650016769 0.7947130883338923 0  0.125 -0.8382681931833136 0  -0.8184523809523809 -0.8184523809523809 0  -0.07781530426104531 -0.5819319697006881 0  0.5085055196703295 0.04967610411902112 0  0.2918471072074933 -0.276017202318847 0  0.5120763537765269 -0.5898771553229597 0  0.625 -0.8585349462365591 0  0.8158532234335381 -0.8158532234335381 0  -0.5198088446315396 0.5739411553684605 0  -0.8585349462365591 0.625 0  -0.8150493805516597 0.8156205699829586 0  0.8585349462365591 -0.625 0  -0.2688268348649726 0.5439331383603209 0  0.8242100426758139 -0.4436043596336612 0  0.5833756314287952 0.4479378157143976 0  0.8690476190476191 -0.125 0  -0.125 0.8690476190476191 0  -0.8692745600729823 0.125 0  0.8696725120759167 0.125 0  -0.625 0.8711516477451908 0  0.2339522463269718 0.3879558377955778 0  0.2453709502295031 0.5655822922838026 0  0.1730610651637797 0.02021709580868947 0  0.3245402594056757 -0.5644672020485209 0  -0.7291666666666666 -0.4816595441595442 0  -1 -0.375 0  -0.5811140848639904 -0.2127276307675001 0  0.673332592838314 0.2158348143233718 0  0.375 1 0  -0.5714768890989919 0.2985103444040069 0  -1 -0.125 0  -0.8453692574786325 -0.1875 0  -0.3144549134065865 -0.02408675326008025 0  -0.2898414972096258 -0.3336092734780093 0  -0.1075052092206287 -0.4224330421314983 0  -0.05043970703604117 -0.1652278959397459 0  0.6459672950297897 -0.1113415301525317 0  0.4645210271029513 0.6398480556579343 0  0.3512863754411909 0.0937979496253573 0  -0.6063160985568274 0.03891469652249891 0  -0.3428819444444445 0.8690476190476191 0  0.625 1 0  -0.1602164796159982 0.02697860906625157 0  0.04648110064133829 -0.4808416424239687 0  1 0.875 0  -0.3836102479201657 0.6484936449177356 0  -0.3776011723096096 0.263078478984336 0  -0.6024978259969829 -0.3949628096211138 0  0.125 1 0  0.2010781308272777 0.8456221018461906 0  0.2822509696388829 -0.845902544691141 0  -0.3285533674953515 -0.6289773550938936 0  0.3461306793221754 0.278777492464833 0  0.4737475672408696 -0.8508448959534423 0  0.2384632828836344 -0.7029523187242811 0  -0.004777287059791593 0.3759269695907358 0  -0.8499735021850066 -0.3912320205328522 0  0.1222536293721587 0.2963971539625205 0  -0.3769456520999688 -0.203572526805711 0  -0.2749617205755651 -0.8464290792698902 0  0.004805888512766143 -0.747174355248311 0  -0.125 -1 0  -0.06001061822252458 -0.8724007765244854 0  0.875 0.4375 0  0.854421179608893 0.271342359217786 0  0.875 1 0  -0.1499861095763589 0.2358309656934888 0  0.3381943639137225 0.8663061796405532 0  -0.7853090110442228 0.4998412775277108 0  0.7398165998560814 -0.5535192694951373 0  0.1580042122341573 -0.3100246140259917 0  -0.7291666666666667 -0.7142857142857142 0  -0.375 -1 0  0.6483368386154684 0.8514905990110488 0  -0.1295370103291928 -0.2826118305021242 0  0.07458201853700455 0.1123894386563915 0  0.6146465857036327 -0.3161203659316075 0  0.5551898493894731 -0.740296118159085 0  0.375 -1 0  0.482702798370208 -0.084133350091034 0  0.87890625 0.68359375 0  -0.05917195534525846 0.4971092425697621 0  0.1260710309213975 0.6343750312956699 0  0.8690476190476191 -0.3077066815262848 0  -0.2912010232560567 0.3668168386732139 0  -0.875 1 0  -1 0.875 0  1 -0.875 0  0.875 -1 0  -0.8689564281364567 -0.006189266075306407 0  -0.7449425635110547 0.08458938160051771 0  -0.7150266761936593 -0.1739444581417552 0  -0.5260034831318311 -0.711099823962112 0  -0.4724626808827322 -0.871722230709409 0  0.4734436795977052 0.377714794132168 0  -0.875 -1 0  -1 -0.875 0  0.6927189078571988 0.5156567235715964 0  -0.3742497615796874 -0.4296005251260107 0  -0.1969436423297711 -0.6387157229772615 0  -0.6179496409766825 -0.08933356056510935 0  -0.424405057115988 0.04452428810878029 0  -0.08479048335844169 0.1279607007132633 0  0.003830300099055113 0.8712085230656206 0  0.8748778838820267 -1.379218479898026e-05 0  -0.375 1 0  -0.625 1 0  1 0.125 0  -0.125 1 0  1 -0.375 0  1 -0.125 0  1 -0.625 0  0.625 -1 0  0.125 -1 0  -0.625 -1 0  -1 -0.625 0  -1 0.125 0  -1 0.375 0  -1 0.625 0  1 0.375 0  1 0.625 0  0.6325660748712082 0.3335187599557389 0  -0.06420945895056573 0.7549874027425891 0  -0.8769015540914771 0.2478802253893416 0  0.871875 0.871875 0  -0.6868091492840067 0.3270978624973681 0  -0.5363597469565949 0.412994850055505 0  -0.6803734992638302 0.5574295000651103 0  -0.7076253581162534 -0.8803439094224437 0  -0.8778089002295137 -0.5106896447504627 0  -0.3860184984222981 0.530566778071246 0  0.6109900617121508 0.1128453077697081 0  0.3896945134930274 -0.1915382873255086 0  0.7605656944697778 -0.06822134873122943 0  0.3576151269893478 0.5948388411612135 0  -0.5689902680792265 -0.5143596830118065 0  0.6262446286847614 -0.5735657901943212 0  0.2030558252325225 -0.5625263842513452 0  0.6123273142928579 0.7407533260723429 0  0.4016460890123554 -0.3042863223111857 0  -0.59039693199147 0.7578418819188018 0  0.7276932493917544 -0.3705808024528924 0  0.5222536818742854 -0.4713886230400014 0  -0.5101986527137737 0.8848365765607674 0  0.510560172809238 0.5356013299918891 0  -0.3603569195756083 0.75823710606415 0  0.1967279277813232 0.728226870058472 0  -0.6086880986371127 0.1545624071548516 0  -0.38105366729386 0.1511189987807864 0  -0.2944659463671584 -0.7359061804869591 0  0.5060729154966499 -0.3475227845833823 0  -0.09281616240412746 -0.06197858250969457 0  0.7649739583333334 0.6673177083333334 0  0.7628906249999999 0.890234375 0  -0.2666864184909611 0.2585504071132311 0  0.3635064892129658 0.3878003602709461 0  -0.2339409722222222 0.8901937905844155 0  -0.1718792125974916 -0.8957733325456778 0  0.1001768566329531 0.4023510017391879 0  0.3120260172693757 -0.4540546875576884 0  0.7804062804433681 0.1896628610854537 0  0.4087715451998049 0.187961780041608 0  -0.1584963477271457 0.5451611892421655 0  -0.8926817849258324 0.463022006336401 0  0.2338091473445219 -0.07576267331277289 0  0.08171112182813692 -0.2349087687359925 0  0.04635385178956847 -0.1044635073718474 0  -0.4377391632114205 -0.6448874471423088 0  -0.1907678351227189 0.6480215912813945 0  0.300605946475244 0.4741444604171038 0  -0.2145033720757486 -0.06751709909419711 0  0.6069191921170397 -0.005492331448357812 0  0.0214718770761248 0.6032397936031719 0  0.5476675683364878 0.8992752415326501 0  0.4387475014316537 0.9093708953002239 0  -0.4932997685306436 -0.4381009159993523 0  0.2515197695339056 -0.1791673369138964 0  -0.7291666666666667 -0.6088789682539681 0  -0.9166666666666667 -0.6875 0  0.620579540363709 -0.2122431523583302 0  -0.484950136419973 0.6719440339397442 0  0.2857044415400258 0.0137589173127316 0  -0.8945708364098356 -0.288306105327986 0  0.4043102720140535 0.7842914560451557 0  0.04123256238752064 -0.9026968245801402 0  0.2003676884403109 -0.9091888601740487 0  0.1068775558538842 -0.7373377130403223 0  -0.4804566783514427 -0.1763307203045643 0  0.108286342087769 -0.3993789328997278 0  -0.191883080105361 -0.3640821726430649 0  -0.07025064492006244 0.2984876656890053 0  -0.7039324641409584 0.788312126296613 0  -0.7311286585775438 0.8932502354831682 0  0.5171409396884947 0.1503852691889257 0  0.4229392823658633 -0.003216522184234835 0  -0.5621736087218259 -0.919558629836806 0  -0.626474064879544 -0.7266572613636506 0  0.2446828746617422 0.2867616783302419 0  0.1759429608742923 0.4776611759306416 0  -0.3468240303741654 -0.5260416435617549 0  -0.7465808808425306 0.4069574477998361 0  -0.7819962170660292 0.2802441065650652 0  -0.3742623214119594 -0.8547800509641984 0  0.1014498009713561 0.8506721983266377 0  0.4285217620918213 -0.5230190595570253 0  0.4091738370487775 -0.6256346204225141 0  0.78125 0.46875 0  0.90625 0.53125 0  -0.4791801348852565 0.2553992655702126 0  0.7843318610782772 -0.7086046956885941 0  0.8909728264971901 -0.7355183796514634 0  0.7041908166528879 -0.7830649143180282 0  0.7311821352
[...]
<PointData  Scalars="velocity-2"> 
<DataArray  type="Float64"  Name="velocity-2"  format="ascii">0.0000000000000000e+00  0.0000000000000000e+00  0.0000000000000000e+00  0.0000000000000000e+00  0.0000000000000000e+00  1.6521598551301799e+00  0.0000000000000000e+00  1.6521569192212813e+00  1.6505319494914061e+00  1.2062383001988226e+00  0.0000000000000000e+00  0.0000000000000000e+00  1.2055346849929078e+00  1.2064252479722868e+00  0.0000000000000000e+00  1.2060167149452712e+00  0.0000000000000000e+00  1.3371613035711289e+00  1.3367362429986283e+00  1.2073186757272936e+00  1.5374957579674635e+00  1.6443475254866602e+00  1.1936944712483379e+00  9.7242131996582315e-01  9.7329262442047160e-01  1.5380378693304571e+00  1.5711662542455991e+00  7.2231650739852016e-01  9.5279010850817270e-01  8.6255576641122111e-01  8.6217734488687348e-01  1.6434189248633453e+00  1.4808823511525868e+00  7.4275144074048360e-01  1.4595712164953447e+00  1.6140074502313717e+00  7.4829385314463259e-01  1.5963075928983519e+00  1.5878147470159045e+00  1.3932498159171220e+00  6.6847817269298804e-01  1.6484441526860050e+00  0.0000000000000000e+00  6.9504154505910232e-01  6.9518323189687647e-01  0.0000000000000000e+00  1.6486990066805507e+00  1.4435102366253876e+00  1.2226589072248442e+00  0.0000000000000000e+00  0.0000000000000000e+00  0.0000000000000000e+00  0.0000000000000000e+00  1.5375103523961013e+00  1.5374458876901325e+00  1.5372715493519244e+00  0.0000000000000000e+00  6.9501862113400847e-01  6.9486004174859795e-01  0.0000000000000000e+00  1.5376772213330647e+00  6.7101045159571338e-01  6.7567322590685841e-01  1.3825864696734411e+00  1.2999612231603899e+00  1.6089322148203695e+00  6.3326407216300640e-01  1.2806270014520471e+00  1.5682157380040067e+00  1.5605522470248729e+00  1.6106916103197892e+00  1.3000282269482932e+00  9.6789116336301773e-01  1.4084274980105169e+00  9.7293493929116348e-01  5.1066472389011119e-01  1.1451231354352822e+00  1.0954490731997679e+00  6.1798688687898329e-01  5.8348449678778225e-01  4.7021030712278272e-01  5.2329493215279310e-01  1.0572665340348302e+00  1.6468001700257739e+00  1.5108494952714384e+00  1.0424952836235080e+00  4.1571145881499288e-01  5.3017688685405362e-01  1.0724252363901372e+00  9.7299773677813028e-01  5.3019527175688452e-01  9.7315731256290483e-01  1.1293460533464421e+00  1.2968569628288906e+00  1.2895180830622450e+00  1.6246054602123015e+00  3.8646394351342545e-01  1.6251435139560955e+00  1.6245850694015858e+00  3.8108676097525684e-01  1.3772182218166904e+00  1.0888865771689233e+00  1.6519336410223897e+00  1.0908128728339033e+00  1.2364818803608677e+00  1.3947604988041531e+00  1.5699572579384515e+00  1.5672686937301303e+00  0.0000000000000000e+00  1.4866113162518422e+00  1.6252618743861575e+00  1.5882927496110091e+00  1.6491793434563624e+00  1.4475250078481581e+00  1.3277656935547733e+00  1.6031853784199426e+00  1.6301723319016828e+00  9.4227131202666392e-01  1.6371459374208661e+00  1.6492608414678616e+00  3.8642268431702043e-01  0.0000000000000000e+00  1.6514623255462095e+00  1.2366219326393015e+00  3.7060618449215732e-01  9.2391610605834662e-01  1.5232610152787387e+00  1.3678053896907818e+00  0.0000000000000000e+00  4.5127365887350790e-01  4.4988138424918039e-01  9.6430917435956298e-01  1.5095213090283470e+00  4.3669919478783420e-01  8.0489519626805062e-01  1.3929215441851963e+00  1.3725648655807068e+00  1.4905159102059247e+00  1.5760955541066386e+00  4.4841341302783483e-01  7.0128956976716827e-01  0.0000000000000000e+00  3.7727532797162860e-01  1.3058229192942516e+00  1.5158972823232699e+00  0.0000000000000000e+00  1.5505813610355568e+00  3.9441540717461221e-01  1.2062063266426324e+00  1.1105607731556881e+00  1.4747119874447205e+00  7.7880185428446225e-01  0.0000000000000000e+00  4.3379810490607262e-01  1.5043287757833914e+00  1.6292282684115298e+00  1.4684999725165226e+00  7.1809487768929525e-01  0.0000000000000000e+00  1.6389720502202028e+00  8.4870904787570245e-01  1.2115198460450383e+00  9.5320518600144311e-01  1.4774160672077385e+00  1.4050749004450314e+00  0.0000000000000000e+00  3.7137583154560039e-01  3.7079654644160115e-01  0.0000000000000000e+00  1.6519369694388144e+00  1.6389044407325113e+00  1.5969523009918807e+00  7.8539081366536545e-01  3.7970561597797903e-01  1.3898616908778763e+00  0.0000000000000000e+00  3.7092743845260956e-01  1.1797543443855245e+00  1.3181478180581860e+00  9.4544607797382441e-01  1.6381185219622318e+00  1.6474608115624760e+00  1.6226346982437427e+00  3.8161030694325032e-01  1.6522114248494602e+00  0.0000000000000000e+00  0.0000000000000000e+00  1.6255751070779938e+00  0.0000000000000000e+00  1.3945601937395480e+00  1.6253557472095879e+00  9.7282278491784480e-01  0.0000000000000000e+00  0.0000000000000000e+00  0.0000000000000000e+00  9.7302139121614817e-01  1.6251879554916175e+00  1.3945340014971157e+00  9.7334216076461222e-01  1.3948482656883607e+00  9.7317844636888173e-01  1.4471626863834210e+00  6.8310802979103158e-01  1.5396387585456370e+00  3.7879324417439153e-01  1.4548535725464045e+00  1.3415782147734541e+00  1.1039950405271821e+00  3.5653656146437129e-01  1.1877211072462435e+00  1.1525929109015032e+00  1.6297019584755124e+00  1.5857917636457006e+00  1.6445454897918945e+00  1.0332067233946360e+00  1.1816828272912172e+00  1.0738077943786470e+00  1.0954537256097414e+00  7.1753664089255764e-01  1.4811281214191414e+00  6.7620600310435852e-01  1.3995471805984123e+00  1.2536520174175734e+00  3.4387474285632585e-01  1.1442362541655580e+00  6.7512431849740728e-01  7.4654512420961672e-01  1.6088522800340443e+00  1.6109244106836977e+00  7.2858659066023757e-01  1.4302574950761342e+00  1.6459030933202023e+00  8.8450545975310557e-01  3.2843453881994311e-01  1.5282247852907711e+00  1.3778085538876716e+00  3.2773517182508655e-01  3.1148022877070081e-01  1.3561359750767881e+00  1.2801242738495129e+00  1.5865683412496268e+00  1.5874537569494740e+00  1.1266429827044910e+00  1.2660902857069884e+00  1.6420491277025784e+00  1.5517497396942757e+00  1.6329199526506182e+00  9.3178896055745608e-01  9.2468605809222992e-01  1.2478647412950850e+00  1.6434942170121873e+00  1.6528299290845896e+00  1.0168117210674879e+00  3.0318269337988429e-01  2.7322490247386250e-01  1.3049896615768690e+00  1.5930671312126128e+00  1.0058789370174626e+00  8.3936607181008482e-01  1.5701642467790113e+00  8.7355404811173942e-01  1.6506624550041458e+00  1.4985151310213494e+00  6.1128704100431996e-01  2.9216977763082813e-01  2.7335323301601977e-01  7.2403781529029254e-01  1.5952404865929370e+00  1.3607656438756446e+00  1.4085491915836843e+00  1.4873367294598017e+00  5.9969045652069408e-01  3.1952819148099926e-01  1.6119926448587820e+00  1.6510720635323524e+00  2.4357889625044499e-01  7.5064310599066264e-01  1.5004416549244066e+00  1.2427053586408141e+00  1.1605950820817621e+00  1.3503954563829512e+00  1.5059641521821876e+00  4.2585002248824999e-01  4.3712041709047245e-01  1.1668409737349053e+00  9.7100071255692511e-01  1.2579454377936174e+00  1.1522211866879486e+00  1.5317263692634995e+00  7.9245968281369317e-01  7.2929805240916934e-01  6.1338621911598934e-01  3.2680963563860754e-01  5.3819799441622973e-01  7.8130531337685005e-01  7.9293261104082124e-01  1.2868888346193490e+00  2.5633573230107642e-01  3.4650124855156045e-01  6.1019092296800925e-01  7.6158353225384023e-01  2.6145391829947662e-01  3.2130105709310869e-01  9.2265523678560080e-01  9.1750781494248157e-01  5.0433255337548488e-01  8.4676759191706696e-01  1.0652256742356563e+00  1.1229809070257339e+00  1.0345791414111329e+00  1.5925106396386115e+00  1.5793983289283209e+00  1.6344052615725313e+00  1.2802700569128926e+00  1.1114696420531038e+00  2.1554500292566814e-01  1.1643475188714343e+00  1.3668612429354920e+00  6.2685766727568515e-01  9.9425427907260111e-01  1.2178925474461801e+00  1.1776637849101135e+00  1.4201673478954122e+00  1.5078382028349460e+00  1.6433949468251576e+00  9.0262353029102527e-01  1.6357694092725357e+00  6.2754503019377994e-01  8.2459547122137655e-01  1.6268114269468723e+00  1.4860400726577645e+00  1.2677559194702015e+00  2.0924650665257694e-01  1.6056764017773306e+00  1.6373721775950847e+00  1.5671161420874422e+00  1.3055955454433250e+00  1.6500664534311451e+00  1.3357713322863789e+00  1.1419276476841984e+00  9.0796663759095286e-01  1.9945523524553219e-01  1.6029799943169911e+00  1.6456763857367296e+00  1.6459543568088340e+00  1.5902586998037029e+00  1.6139355851085950e+00  2.0538277006145780e-01  7.9985446138053673e-01  2.0190103732752790e-01  1.4721600112269246e+00  1.9970527661180415e-01  9.2960949716227947e-01  1.6459462563338165e+00  1.9471182104000670e-01  1.3712131495701569e+00  1.1266947152463058e+00  1.1259279009155116e+00  5.3569684584016919e-01  1.4716204247770541e+00  1.6454628332178494e+00  1.6457441660624941e+00  1.6454669472458754e+00  1.9123887321916855e-01  2.4399549079645766e-01  2.0000556419746646e-01  1.6205689113551176e+00  1.5691837165945342e+00  1.1294528026698503e+00  6.3336485451812885e-01  1.9253665887026358e-01  8.5963396357201849e-01  1.4014706632706051e+00  8.2936716440488933e-01  1.6504797295545239e+00  1.5923563809326324e+00  5.8835649431079506e-01  7.3153740880670193e-01  1.6491832159848308e+00  1.6235738339878367e+00  1.4310949723873101e+00  1.5462276775491681e+00  1.9892731437900504e-01  1.5263913955244932e+00  1.3305233956116560e+00  1.4345878110046284e+00  1.5174100289341597e+00  1.3692348801847782e+00  1.6321600365401145e+00  1.5491639664302099e+00  8.9637569605514378e-01  5.8113361504250827e-01  1.5187888440037762e+00  1.5556921995961492e+00  1.0436286805409853e+00  1.4165716037954164e+00  1.0394948926936123e+00  1.5713937845979045e+00  1.6151659720547207e+00  1.5958631687659501e+00  1.4558287873781537e+00  1.6500734155612462e+00  8.1256576893884869e-01  2.9851037992420260e-01  1.4565799917491609e+00  4.3795021435051873e-01  1.4513024249860422e+00  1.2169409336308417e+00  1.3470885388115605e+00  1.4384385236886428e+00  1.1125229483280077e+00  1.5651601383767193e+00  1.5290536411716860e+00  1.3985782191617315e+00  1.2566193928512985e+00  1.6239576475538988e+00  0.0000000000000000e+00  1.6481771110877703e+00  1.6385327488399528e+00  1.2914463611613618e+00  1.2797971926571250e+00  6.0866022470541992e-01  1.6514191120002850e+00  1.6348835835444819e+00  9.5141403882666475e-01  1.2625207311288567e+00  1.4584389071611423e+00  9.9952583044858645e-01  1.0906643782106067e+00  0.0000000000000000e+00  1.5361533447398585e+00  1.9315191448825467e-01  5.5895635769459828e-01  1.6258740704899173e+00  4.9587724598952049e-01  2.4377499383937426e-01  9.5333489846008368e-01  1.3507140076736055e+00  1.4309611073521937e+00  2.2108323597729257e-01  1.1107020312044840e+00  5.0018748918782141e-01  6.4192163777470601e-01  1.3785160215291286e+00  1.5748777353611922e+00  6.3980754290721309e-01  1.5751726890759470e+00  1.9288637194032515e-01  1.5240981261345079e+00  1.4368299642961473e+00  6.1889942200735482e-01  1.0153522209092525e+00  8.9033016314119584e-01  1.6230415323476062e+00  5.9941105361965008e-01  6.2327685524789744e-01  1.0131783079662589e+00  0.0000000000000000e+00  1.4688808094824990e+00  0.0000000000000000e+00  1.0490144280929945e+00  1.3552527897687674e+00  1.4125557559906607e+00  1.1798643376090916e+00  1.6512423145073483e+00  1.6359179383361078e+00  1.5566467170353799e+00  1.2989140989324444e+00  1.4853573212252291e+00  0.0000000000000000e+00  2.2347821675233714e-01  9.7288860339766536e-01  1.9104511478207661e-01  7.7205036586056563e-01  1.2631751377491212e+00  4.2629747033703963e-01  1.0848152833642632e+00  8.3591750874451709e-01  6.7097975977394453e-01  3.3155400656581774e-01  0.0000000000000000e+00  4.9389381088675061e-01  5.0012863248598727e-01  5.3454865606244761e-01  1.6475479589250055e+00  0.0000000000000000e+00  1.0491553076925280e+00  8.4418237619368441e-01  1.6500290471794232e+00  1.4743856505898638e+00  1.5884579602313849e+00  1.5600175187124219e+00  1.4723027843011778e+00  1.5798858640518427e+00  1.6509485041455441e+00  7.2366262510652968e-01  1.1627725389872861e+00  8.9870414752542438e-01  1.1911421430734814e+00  1.6272682830034082e+00  1.6354433391913237e+00  0.0000000000000000e+00  1.0439568767355163e+00  2.1874805929487307e-01  2.6658138507000256e-01  1.2485063497921423e+00  1.3118250964868756e+00  1.5440618055467856e+00  2.5076172159845128e-01  7.8351810230365804e-01  1.5956230749489879e+00  1.4137205547840148e+00  1.5401396429789085e+00  1.2522262327836102e+00  1.6066961262892976e+00  1.6423946686084625e+00  1.3054183384034375e+00  1.9626692474125931e-01  2.1073863696828898e-01  2.1561551420332065e-01  1.5717379978409960e+00  5.7290663171796474e-01  1.3974663414456820e+00  1.6285735861442925e+00  1.6004107475813729e+00  1.5552408097548620e+00  9.7499393974403059e-01  1.1869910036535809e+00  4.8031308236125114e-01  2.0367177882730289e-01  1.6090956651220822e+00  1.3060042118401578e+00  1.3861912320080363e+00  1.5265677552901731e+00  1.5209759161092320e+00  1.5144565662488125e+00  1.2575011031363030e+00  1.2066486492570814e+00  1.3805152851383820e+00  1.9239407467816066e-01  0.0000000000000000e+00  1.2158949476698171e+00  1.6282880357976579e+00  1.6319699213392269e+00  1.5730483441821614e+00  5.7420421720457193e-01  2.1544620260431829e-01  1.6511981055161542e+00  7.3646141623166650e-01  7.7069010511568281e-01  1.3915382810746133e+00  1.4495000867158880e+00  6.9648110244482131e-01  5.6137932395927481e-01  8.4404696928332468e-01  8.8339637539428140e-01  1.6382886983698659e+00  6.5524200586663905e-01  8.6698831880156801e-01  8.7907749975517913e-01  1.4840242731275595e+00  1.0239241007791426e+00  1.0492460924220224e+00  1.5315793718700592e+00  1.4722367197002986e+00  7.9313084134219480e-01  1.2671107041399763e+00  3.9346879822785580e-01  1.1987518026852615e+00  1.5939369225317277e+00  2.0560253179558524e-01  4.6500001301956750e-01  1.6494386641363215e+00  4.9143158487214783e-01  5.9734264593643016e-01  4.7060884122038549e-01  9.3384000466725381e-01  1.4410930959368082e+00  1.6522765881590129e+00  5.7994617459532749e-01  1.5060859616157989e+00  1.5622429842876477e+00  1.1604677393841485e+00  1.1509922254045295e+00  6.6697983943776318e-01  1.1028934707593101e+00  1.0954584776251384e+00  1.5384683665453138e+00  1.5760005274190112e+00  1.3491926043751965e+00  1.6512938617441588e+00  9.5509788866823908e-01  1.6240493672265142e+00  1.5060343394148419e+00  4.9290180565245445e-01  1.4307739955817351e+00  8.2121916843663978e-01  1.6396291160064844e+00  8.8948421784166187e-01  2.0286182445545364e-01  4.1795112791999239e-01  5.4530108006274092e-01  7.0457822573472284e-01  1.6222118939716454e+00  1.5888117895273648e+00  1.6137455519936230e+00  1.0761948256145839e+00  1.5224664338636871e+00  1.4721444628231271e+00  1.3268359622038890e+00  1.3679219695867331e+00  1.6451725382573956e+00  0.0000000000000000e+00  1.1564321455332891e+00  1.0168375325934604e+00  7.8034077078492392e-01  6.5334421472164206e-01  9.3330923105696895e-01  8.1477515753967722e-01  1.6492993994798510e+00  6.0497529391308213e-01  1.4301630549615083e+00  9.8467463110408393e-01  1.0688177055841097e+00  1.2464155867090783e+00  0.0000000000000000e+00  5.3854666984776833e-01  5.1081010914635172e-01  8.3993907278914093e-01  7.8080478330877545e-01  8.3252782802727521e-01  1.3591946907516979e+00  1.2579333604781382e+00  1.4762833743363675e+00  1.5265212921982920e+00  8.1912492751328414e-01  0.0000000000000000e+00  1.9346453669739069e-01  4.5490767102509250e-01  1.6300295249795587e+00  5.8130970626960843e-01  1.1258538472214530e+00  1.5993692289149453e+00  1.6413443214242200e+00  7.9957866487745510e-01  1.1977586022745312e+00  8.8797159016600313e-01  3.0749208548251283e-01  1.5569516836107034e+00  1.4519981102673412e+00  1.6455404774263085e+00  1.6509864540946606e+00  2.6795624975241933e-01  8.4137482069288283e-01  2.0259625896151331e-01  1.6519775456160026e+00  2.6229147462794433e-01  1.5359477897133844e+00  1.0950849870226715e+00  8.3971639758872185e-01  0.0000000000000000e+00  0.0000000000000000e+00  0.0000000000000000e+00  1.9129141967476510e-01  0.0000000000000000e+00  0.0000000000000000e+00  1.4723545691765529e+00  5.3889726871433286e-01  0.0000000000000000e+00  0.0000000000000000e+00  1.4720262593186444e+00  0.0000000000000000e+00  0.0000000000000000e+00  1.6453093723781207e+00  1.6450884389933980e+00  1.5888219193991961e+00  1.5887742024064955e+00  1.6453841506401372e+00  1.6456329942159618e+00  0.0000000000000000e+00  1.3060255936992904e+00  0.0000000000000000e+00  0.0000000000000000e+00  1.0948054913922052e+00  0.0000000000000000e+00  0.0000000000000000e+00  5.3843641544978715e-01  0.0000000000000000e+00  0.0000000000000000e+00  8.3974281395498440e-01  0.0000000000000000e+00  5.3853677175955239e-01  1.9229851258853140e-01  0.0000000000000000e+00  1.5891605268831062e+00  0.0000000000000000e+00  1.0953457468745145e+00  0.0000000000000000e+00  1.3059844966121299e+00  8.3967099451262139e-01  1.1859044862159682e+00  1.3474399166894655e+00  4.5600479889982337e-01  1.2069525748674699e+00  1.1864979766697032e+00  1.3764246462806884e+00  1.3754707429032440e+00  1.2911289372917050e+00  1.1177037159340661e+00  1.0908149700950069e+00  1.3467480938521252e+00  1.6592157770547675e-01  1.1539102718658449e+00  9.8675756232452860e-01  1.2753551463102832e+00  1.5889407430325992e+00  1.4847290158940030e+00  1.5413959243522204e+00  1.6446116158747159e+00  1.6753147616767144e-01  1.0825858724028523e+00  1.2870028752666454e+00  1.6320526704408138e+00  1.6521677888083557e+00  1.3743627258655482e+00  1.6436342750464950e+00  1.6231652103589214e+00  1.5590171286694847e+00  1.3632408638176714e+00  1.6451469696123002e+00  1.5466364270875113e+00  1.1869232288348963e+00  1.6092059333768429e+00  1.6390500512753501e+00  8.4958280433813682e-01  1.5958200333881221e+00  1.5138505886263161e+00  1.3413953309439339e+00  1.4764511355878445e+00  1.6168345050226200e+00  1.2422326982048248e+00  1.0450021305059813e+00  1.6455181100592897e+00  1.0320222973511979e+00  1.4355348509213919e+00  1.4791579958756167e+00  1.6333113756548603e+00  8.0413478623395085e-01  1.6076326092344146e+00  1.6358261411289059e+00  1.6468416939131978e+00  1.6255910810748635e+00  1.3168990137154650e+00  1.4273816180520043e+00  1.3159535969919742e+00  1.1516419921046395e+00  1.2057033820304501e+00  4.7932945697426060e-01  1.3860890691823844e+00  1.3136126656285254e+00  1.5208145264715884e+00  4.8505522465252032e-01  3.6917742042916279e-01  1.1570219434303743e+00  1.2620852405090470e+00  1.5222322470342777e+00  5.2983548551372883e-01  9.1303231852662292e-01  1.5150966150943728e+00  1.4671985572685229e+00  1.3847714325115570e+00  5.2677288803100886e-01  8.0659373779136789e-01  6.8510320056081886e-01  4.6277681307349700e-01  1.6138975889009057e+00  1.1107016453253209e+00  1.3353343705251977e+00  1.5401134449166558e+00  1.1778022739444272e+00  1.2445234769333204e+00  1.4336845770547011e+00  1.5904382908924625e-01  1.6363662138412094e+00  1.6132091162195892e+00  1.6504506869176057e+00  1.6415162336915936e+00  1.4939748160431086e+00  1.3801211533916860e+00  3.9735713939447759e-01  1.6492530320578251e+00  1.4198017190212520e+00  1.5145082940885881e+00  8.4622846798421980e-01  6.7558856847655291e-01  1.0537041867171280e+00  4.9693210105825247e-01  6.4564725249898836e-01  6.7746047781998475e-01  1.3331140865672801e+00  5.2512522189848787e-01  1.8075597353547987e-01  1.6110129419919450e+00  1.9185080808846802e-01  1.3557430632338121e+00  1.6496193684119267e+00  1.0454090243729393e+00  9.7488529189667528e-01  1.4198224221260247e+00  1.6385539311754052e+00  9.5755331337659988e-01  1.6073724762407013e+00  1.7187700330927028e-01  3.9394918440344018e-01  2.7640593352127069e-01  1.0454667541165283e+00  9.6334676857744583e-01  1.0911275840129824e+00  1.5992136562504378e-01  8.3790781626252897e-01  1.2846782024414969e+00  3.5708393819787893e-01  1.5842790256734514e+00  1.8553157370984788e-01  5.1315503389224371e-01  7.4455360235305657e-01  6.4154197394020973e-01  4.8626127558044463e-01  1.4804286081957829e+00  1.22139