<?xml version="1.0"?>
<VTKFile type="UnstructuredGrid"  version="0.1"  >
<UnstructuredGrid>
<Piece  NumberOfPoints="2513" NumberOfCells="4852">
<Points>
<DataArray  type="Float64"  NumberOfComponents="3"  format="ascii">-1 1 0  -1 -1 0  1 -1 0  1 1 0  0 -1 0  1 0 0  0 1 0  -1 0 0  0 0 0  -1 -0.5 0  -0.5 -1 0  -0.5 1 0  -1 0.5 0  1 -0.5 0  0.5 -1 0  1 0.5 0  0.5 1 0  0.4166666666666666 -0.4166666666666667 0  -0.4166666666666667 0.4166666666666667 0  -0.25 -0.5 0  0.5 0.25 0  -0.4861111111111112 -0.06944444444444445 0  0.0732758620689655 0.507183908045977 0  -0.625 -0.625 0  0.625 0.625 0  0.7380952380952381 -0.25 0  -0.7099116161616161 0.2105429292929293 0  -0.25 0.7380952380952381 0  0.105392156862745 -0.6348039215686275 0  0.6770833333333334 -0.6770833333333333 0  -0.6770833333333334 0.6770833333333334 0  0.3472222222222222 -0.06944444444444446 0  -0.7264957264957265 -0.3044871794871795 0  0.3141940982507127 0.7297313660835709 0  0.02049587951122483 -0.3227479397556124 0  -0.2690972222222223 0.1475694444444444 0  0.3859500089908372 -0.7274430156831472 0  -0.2228477945123298 -0.1761765495248019 0  0.2182539682539683 0.1884920634920635 0  0.75 0.375 0  -0.145442219440968 -0.7602211097204841 0  0.7088913690476191 0.0427827380952381 0  -0.75 -1 0  -1 -0.75 0  1 0.75 0  0.75 1 0  -0.7439982703698937 -0.04614153195464455 0  -0.4609235096577606 -0.3356498099556895 0  0.4063134471431929 0.4895621842856023 0  0.25 -1 0  -0.25 -1 0  -0.75 1 0  0.75 -1 0  -1 -0.25 0  -1 0.25 0  1 -0.25 0  -0.25 1 0  1 -0.75 0  -1 0.75 0  0.25 1 0  1 0.25 0  -0.4041423272138783 -0.7597141090712928 0  0.06500839607911253 0.7578103030529481 0  -0.1572801182352047 0.3838997021864289 0  -0.6528005242053915 0.4409494757946086 0  -0.4930160984848485 0.1544744318181818 0  -0.4732142857142858 0.7752976190476191 0  0.6398809523809523 -0.4538690476190476 0  0.5166054117396399 -0.2161233620965164 0  -0.002273787244753427 0.2232363985975174 0  0.1500564496765022 -0.1524955293952667 0  0.2016720420046758 -0.4410343282803009 0  -0.08495178036419618 0.6274139771124571 0  -0.8367311471133162 0.3642591720794645 0  -0.8333333333333334 -0.625 0  -0.594323836800685 -0.8231079456002283 0  -0.4466957714776065 -0.5349126855671806 0  0.8125 0.5625 0  0.78125 0.78125 0  0.5091392650016769 0.7947130883338923 0  0.125 -0.8382681931833136 0  -0.8184523809523809 -0.8184523809523809 0  -0.07781530426104531 -0.5819319697006881 0  0.5085055196703295 0.04967610411902112 0  0.2918471072074933 -0.276017202318847 0  0.5120763537765269 -0.5898771553229597 0  0.625 -0.8585349462365591 0  0.8158532234335381 -0.8158532234335381 0  -0.5198088446315396 0.5739411553684605 0  -0.8585349462365591 0.625 0  -0.8150493805516597 0.8156205699829586 0  0.8585349462365591 -0.625 0  -0.2688268348649726 0.5439331383603209 0  0.8242100426758139 -0.4436043596336612 0  0.5833756314287952 0.4479378157143976 0  0.8690476190476191 -0.125 0  -0.125 0.8690476190476191 0  -0.8692745600729823 0.125 0  0.8696725120759167 0.125 0  -0.625 0.8711516477451908 0  0.2339522463269718 0.3879558377955778 0  0.2453709502295031 0.5655822922838026 0  0.1730610651637797 0.02021709580868947 0  0.3245402594056757 -0.5644672020485209 0  -0.7291666666666666 -0.4816595441595442 0  -1 -0.375 0  -0.5811140848639904 -0.2127276307675001 0  0.673332592838314 0.2158348143233718 0  0.375 1 0  -0.5714768890989919 0.2985103444040069 0  -1 -0.125 0  -0.8453692574786325 -0.1875 0  -0.3144549134065865 -0.02408675326008025 0  -0.2898414972096258 -0.3336092734780093 0  -0.1075052092206287 -0.4224330421314983 0  -0.05043970703604117 -0.1652278959397459 0  0.6459672950297897 -0.1113415301525317 0  0.4645210271029513 0.6398480556579343 0  0.3512863754411909 0.0937979496253573 0  -0.6063160985568274 0.03891469652249891 0  -0.3428819444444445 0.8690476190476191 0  0.625 1 0  -0.1602164796159982 0.02697860906625157 0  0.04648110064133829 -0.4808416424239687 0  1 0.875 0  -0.3836102479201657 0.6484936449177356 0  -0.3776011723096096 0.263078478984336 0  -0.6024978259969829 -0.3949628096211138 0  0.125 1 0  0.2010781308272777 0.8456221018461906 0  0.2822509696388829 -0.845902544691141 0  -0.3285533674953515 -0.6289773550938936 0  0.3461306793221754 0.278777492464833 0  0.4737475672408696 -0.8508448959534423 0  0.2384632828836344 -0.7029523187242811 0  -0.004777287059791593 0.3759269695907358 0  -0.8499735021850066 -0.3912320205328522 0  0.1222536293721587 0.2963971539625205 0  -0.3769456520999688 -0.203572526805711 0  -0.2749617205755651 -0.8464290792698902 0  0.004805888512766143 -0.747174355248311 0  -0.125 -1 0  -0.06001061822252458 -0.8724007765244854 0  0.875 0.4375 0  0.854421179608893 0.271342359217786 0  0.875 1 0  -0.1499861095763589 0.2358309656934888 0  0.3381943639137225 0.8663061796405532 0  -0.7853090110442228 0.4998412775277108 0  0.7398165998560814 -0.5535192694951373 0  0.1580042122341573 -0.3100246140259917 0  -0.7291666666666667 -0.7142857142857142 0  -0.375 -1 0  0.6483368386154684 0.8514905990110488 0  -0.1295370103291928 -0.2826118305021242 0  0.07458201853700455 0.1123894386563915 0  0.6146465857036327 -0.3161203659316075 0  0.5551898493894731 -0.740296118159085 0  0.375 -1 0  0.482702798370208 -0.084133350091034 0  0.87890625 0.68359375 0  -0.05917195534525846 0.4971092425697621 0  0.1260710309213975 0.6343750312956699 0  0.8690476190476191 -0.3077066815262848 0  -0.2912010232560567 0.3668168386732139 0  -0.875 1 0  -1 0.875 0  1 -0.875 0  0.875 -1 0  -0.8689564281364567 -0.006189266075306407 0  -0.7449425635110547 0.08458938160051771 0  -0.7150266761936593 -0.1739444581417552 0  -0.5260034831318311 -0.711099823962112 0  -0.4724626808827322 -0.871722230709409 0  0.4734436795977052 0.377714794132168 0  -0.875 -1 0  -1 -0.875 0  0.6927189078571988 0.5156567235715964 0  -0.3742497615796874 -0.4296005251260107 0  -0.1969436423297711 -0.6387157229772615 0  -0.6179496409766825 -0.08933356056510935 0  -0.424405057115988 0.04452428810878029 0  -0.08479048335844169 0.1279607007132633 0  0.003830300099055113 0.8712085230656206 0  0.8748778838820267 -1.379218479898026e-05 0  -0.375 1 0  -0.625 1 0  1 0.125 0  -0.125 1 0  1 -0.375 0  1 -0.125 0  1 -0.625 0  0.625 -1 0  0.125 -1 0  -0.625 -1 0  -1 -0.625 0  -1 0.125 0  -1 0.375 0  -1 0.625 0  1 0.375 0  1 0.625 0  0.6325660748712082 0.3335187599557389 0  -0.06420945895056573 0.7549874027425891 0  -0.8769015540914771 0.2478802253893416 0  0.871875 0.871875 0  -0.6868091492840067 0.3270978624973681 0  -0.5363597469565949 0.412994850055505 0  -0.6803734992638302 0.5574295000651103 0  -0.7076253581162534 -0.8803439094224437 0  -0.8778089002295137 -0.5106896447504627 0  -0.3860184984222981 0.530566778071246 0  0.6109900617121508 0.1128453077697081 0  0.3896945134930274 -0.1915382873255086 0  0.7605656944697778 -0.06822134873122943 0  0.3576151269893478 0.5948388411612135 0  -0.5689902680792265 -0.5143596830118065 0  0.6262446286847614 -0.5735657901943212 0  0.2030558252325225 -0.5625263842513452 0  0.6123273142928579 0.7407533260723429 0  0.4016460890123554 -0.3042863223111857 0  -0.59039693199147 0.7578418819188018 0  0.7276932493917544 -0.3705808024528924 0  0.5222536818742854 -0.4713886230400014 0  -0.5101986527137737 0.8848365765607674 0  0.510560172809238 0.5356013299918891 0  -0.3603569195756083 0.75823710606415 0  0.1967279277813232 0.728226870058472 0  -0.6086880986371127 0.1545624071548516 0  -0.38105366729386 0.1511189987807864 0  -0.2944659463671584 -0.7359061804869591 0  0.5060729154966499 -0.3475227845833823 0  -0.09281616240412746 -0.06197858250969457 0  0.7649739583333334 0.6673177083333334 0  0.7628906249999999 0.890234375 0  -0.2666864184909611 0.2585504071132311 0  0.3635064892129658 0.3878003602709461 0  -0.2339409722222222 0.8901937905844155 0  -0.1718792125974916 -0.8957733325456778 0  0.1001768566329531 0.4023510017391879 0  0.3120260172693757 -0.4540546875576884 0  0.7804062804433681 0.1896628610854537 0  0.4087715451998049 0.187961780041608 0  -0.1584963477271457 0.5451611892421655 0  -0.8926817849258324 0.463022006336401 0  0.2338091473445219 -0.07576267331277289 0  0.08171112182813692 -0.2349087687359925 0  0.04635385178956847 -0.1044635073718474 0  -0.4377391632114205 -0.6448874471423088 0  -0.1907678351227189 0.6480215912813945 0  0.300605946475244 0.4741444604171038 0  -0.2145033720757486 -0.06751709909419711 0  0.6069191921170397 -0.005492331448357812 0  0.0214718770761248 0.6032397936031719 0  0.5476675683364878 0.8992752415326501 0  0.4387475014316537 0.9093708953002239 0  -0.4932997685306436 -0.4381009159993523 0  0.2515197695339056 -0.1791673369138964 0  -0.7291666666666667 -0.6088789682539681 0  -0.9166666666666667 -0.6875 0  0.620579540363709 -0.2122431523583302 0  -0.484950136419973 0.6719440339397442 0  0.2857044415400258 0.0137589173127316 0  -0.8945708364098356 -0.288306105327986 0  0.4043102720140535 0.7842914560451557 0  0.04123256238752064 -0.9026968245801402 0  0.2003676884403109 -0.9091888601740487 0  0.1068775558538842 -0.7373377130403223 0  -0.4804566783514427 -0.1763307203045643 0  0.108286342087769 -0.3993789328997278 0  -0.191883080105361 -0.3640821726430649 0  -0.07025064492006244 0.2984876656890053 0  -0.7039324641409584 0.788312126296613 0  -0.7311286585775438 0.8932502354831682 0  0.5171409396884947 0.1503852691889257 0  0.4229392823658633 -0.003216522184234835 0  -0.5621736087218259 -0.919558629836806 0  -0.626474064879544 -0.7266572613636506 0  0.2446828746617422 0.2867616783302419 0  0.1759429608742923 0.4776611759306416 0  -0.3468240303741654 -0.5260416435617549 0  -0.7465808808425306 0.4069574477998361 0  -0.7819962170660292 0.2802441065650652 0  -0.3742623214119594 -0.8547800509641984 0  0.1014498009713561 0.8506721983266377 0  0.4285217620918213 -0.5230190595570253 0  0.4091738370487775 -0.6256346204225141 0  0.78125 0.46875 0  0.90625 0.53125 0  -0.4791801348852565 0.2553992655702126 0  0.7843318610782772 -0.7086046956885941 0  0.8909728264971901 -0.7355183796514634 0  0.7041908166528879 -0.7830649143180282 0  0.7311821352
[...]
<PointData  Scalars="velocity-2"> 
<DataArray  type="Float64"  Name="velocity-2"  format="ascii">0.0000000000000000e+00  0.0000000000000000e+00  0.0000000000000000e+00  0.0000000000000000e+00  0.0000000000000000e+00  1.6518069459580196e+00  0.0000000000000000e+00  1.6517744633666815e+00  1.6497687462599353e+00  1.2200258088431351e+00  0.0000000000000000e+00  0.0000000000000000e+00  1.2194725819252028e+00  1.2201331217538074e+00  0.0000000000000000e+00  1.2197867701680500e+00  0.0000000000000000e+00  1.3528895160732890e+00  1.3523805736021164e+00  1.2217654206302118e+00  1.5494942345384017e+00  1.6439552602223497e+00  1.2068967926711236e+00  9.8270549093463144e-01  9.8361258461353185e-01  1.5498027030583938e+00  1.5799852449889227e+00  7.2956979780888054e-01  9.6236071828775993e-01  8.7154011203956849e-01  8.7106683122917583e-01  1.6437064257412666e+00  1.4965893526248824e+00  7.5024043351157044e-01  1.4757690289825556e+00  1.6171428086860686e+00  7.5527576567202936e-01  1.6015999028184045e+00  1.5938339301299733e+00  1.4104733256150439e+00  6.7584301985189021e-01  1.6485778610628929e+00  0.0000000000000000e+00  7.0181676648866076e-01  7.0219770445773100e-01  0.0000000000000000e+00  1.6485034751945522e+00  1.4593880013971112e+00  1.2367850989042304e+00  0.0000000000000000e+00  0.0000000000000000e+00  0.0000000000000000e+00  0.0000000000000000e+00  1.5494459559890656e+00  1.5494907102187074e+00  1.5493362580728756e+00  0.0000000000000000e+00  7.0192502568700610e-01  7.0187680152161114e-01  0.0000000000000000e+00  1.5497901889135084e+00  6.7840901453209856e-01  6.8192651310764341e-01  1.3993019912984488e+00  1.3153723620224282e+00  1.6127834450568288e+00  6.3925274074513105e-01  1.2949582871088055e+00  1.5770781541899881e+00  1.5704401171917923e+00  1.6145823187372887e+00  1.3155421517494277e+00  9.7803657293526347e-01  1.4251912691180866e+00  9.8344072756649470e-01  5.1496290683676371e-01  1.1587824856885705e+00  1.1072957084508477e+00  6.2403404485928404e-01  5.8970988697050597e-01  4.7452928261454647e-01  5.2805303255008473e-01  1.0698869535330937e+00  1.6482748170769830e+00  1.5251449495622909e+00  1.0539439658168417e+00  4.1984688355921657e-01  5.3504245327202782e-01  1.0846361207518285e+00  9.8295191886833200e-01  5.3617521960824321e-01  9.8339782426486089e-01  1.1416148956510430e+00  1.3117685294681651e+00  1.3042493984389343e+00  1.6267110072265669e+00  3.9032302003632530e-01  1.6272073755786112e+00  1.6269803494251376e+00  3.8493914470386598e-01  1.3927822661568767e+00  1.1010617832763028e+00  1.6511098625648588e+00  1.1026360380042164e+00  1.2512410733030122e+00  1.4110496644948929e+00  1.5797697159566766e+00  1.5764041164914542e+00  0.0000000000000000e+00  1.5020217083991296e+00  1.6275109736611615e+00  1.5949998697558121e+00  1.6501683752059619e+00  1.4633363984655225e+00  1.3438084273672355e+00  1.6076121563072365e+00  1.6317598255327970e+00  9.5257902763558688e-01  1.6371985716564508e+00  1.6489037789988226e+00  3.9009760441205804e-01  0.0000000000000000e+00  1.6507863234787123e+00  1.2514413426529800e+00  3.7423719339952366e-01  9.3314414137968749e-01  1.5365196373837700e+00  1.3837374538135585e+00  0.0000000000000000e+00  4.5525402825946237e-01  4.5383249925272851e-01  9.7567705605356181e-01  1.5225949565346002e+00  4.4124035733008682e-01  8.1203918138392239e-01  1.4097431568280565e+00  1.3882479803999790e+00  1.5046590009908325e+00  1.5837544000741668e+00  4.5340708679863562e-01  7.0818417031458647e-01  0.0000000000000000e+00  3.8117783040160841e-01  1.3211323536029720e+00  1.5299879084974322e+00  0.0000000000000000e+00  1.5612589992147241e+00  3.9823655258391077e-01  1.2200495326574401e+00  1.1236768153276431e+00  1.4906358349730822e+00  7.8633932004680596e-01  0.0000000000000000e+00  4.3860114156374297e-01  1.5186211352544274e+00  1.6309839983700258e+00  1.4834748674690605e+00  7.2515506920707562e-01  0.0000000000000000e+00  1.6398106653994651e+00  8.5737564871398708e-01  1.2251793416411350e+00  9.6279948758297862e-01  1.4926283818111301e+00  1.4213456831524141e+00  0.0000000000000000e+00  3.7474909037204157e-01  3.7422878358178685e-01  0.0000000000000000e+00  1.6514560102047811e+00  1.6389224430584222e+00  1.6027853066310793e+00  7.9335292638514321e-01  3.8358770545779070e-01  1.4067754012717544e+00  0.0000000000000000e+00  3.7428567455580497e-01  1.1928366449765293e+00  1.3334913150159828e+00  9.5512704414754812e-01  1.6390333470151859e+00  1.6483080036710780e+00  1.6253574256335439e+00  3.8506659031206714e-01  1.6513506563268139e+00  0.0000000000000000e+00  0.0000000000000000e+00  1.6275958240706188e+00  0.0000000000000000e+00  1.4111752283562935e+00  1.6273920319190280e+00  9.8326507187957846e-01  0.0000000000000000e+00  0.0000000000000000e+00  0.0000000000000000e+00  9.8345924398333717e-01  1.6271307084974740e+00  1.4107072517242958e+00  9.8385264381336701e-01  1.4113333513128072e+00  9.8346472370607674e-01  1.4630324281835589e+00  6.8944330750479021e-01  1.5511626316948197e+00  3.8220820066390138e-01  1.4703056960436993e+00  1.3574662537806033e+00  1.1163139938038247e+00  3.5977479621224506e-01  1.2015434838175600e+00  1.1663491629229026e+00  1.6313951948087952e+00  1.5935894836110811e+00  1.6436953866804758e+00  1.0438631350723817e+00  1.1950038815437807e+00  1.0854122969380884e+00  1.1067577608047483e+00  7.2405235256957645e-01  1.4955634103419961e+00  6.8255736549617652e-01  1.4161191491696072e+00  1.2683214155580975e+00  3.4677764240037606e-01  1.1567496168196616e+00  6.8137302904777608e-01  7.5398197365981612e-01  1.6128736140936037e+00  1.6153750723044817e+00  7.3529745059481477e-01  1.4467299904670046e+00  1.6456677942853564e+00  8.9331242387472909e-01  3.3058181777250778e-01  1.5413106789552931e+00  1.3936961406929922e+00  3.3101206264207139e-01  3.1484548339657131e-01  1.3731754247666621e+00  1.2950653502329292e+00  1.5934421364704277e+00  1.5948771055010811e+00  1.1397790931425633e+00  1.2807146113488888e+00  1.6426517213147100e+00  1.5620013739625394e+00  1.6335337080919856e+00  9.4214407747848095e-01  9.3427725867492706e-01  1.2629070034434215e+00  1.6434886162260314e+00  1.6518226364459503e+00  1.0279716324055117e+00  3.0507078074387051e-01  2.7607288370932054e-01  1.3206843233241954e+00  1.5996331195635207e+00  1.0165155231186553e+00  8.4800018696955581e-01  1.5790367233170433e+00  8.8264733461084621e-01  1.6511134117788200e+00  1.5129702546489503e+00  6.1654295876272169e-01  2.9452705465632961e-01  2.7576602750808993e-01  7.3159753917719994e-01  1.6018340882093178e+00  1.3764183833698249e+00  1.4247541908300498e+00  1.5026941695514580e+00  6.0610095964278021e-01  3.2233499542519212e-01  1.6163377649514745e+00  1.6518517476258334e+00  2.4582358884491409e-01  7.5765017303948734e-01  1.5140245184073040e+00  1.2565952660131656e+00  1.1740190952401601e+00  1.3664748045313575e+00  1.5202821955340686e+00  4.2935131746736194e-01  4.4086577501632040e-01  1.1795222930299907e+00  9.8182676976985161e-01  1.2731120625700512e+00  1.1650312569929042e+00  1.5440499514342358e+00  8.0044072445961034e-01  7.3655799620498175e-01  6.1915897074012383e-01  3.2924632043906665e-01  5.4340371837886536e-01  7.8945527041206631e-01  8.0089650083842479e-01  1.3021537169445354e+00  2.5870471285891700e-01  3.4976040075104164e-01  6.1620105802814029e-01  7.6942474726548327e-01  2.6413769060465503e-01  3.2463166941081462e-01  9.3199269486154190e-01  9.2762891395764180e-01  5.0920563464179480e-01  8.5491835486466927e-01  1.0765948664916902e+00  1.1348753404934988e+00  1.0460098097092538e+00  1.5982484850079142e+00  1.5876642695628151e+00  1.6349949749843637e+00  1.2957240510514434e+00  1.1237648047447346e+00  2.1753078358188996e-01  1.1772932422420477e+00  1.3829062112365349e+00  6.3243747597165667e-01  1.0041714614333213e+00  1.2320159556206183e+00  1.1912507301300206e+00  1.4357750422376370e+00  1.5215594138956303e+00  1.6436525966084703e+00  9.1232683844916407e-01  1.6374371989267005e+00  6.3379057143937778e-01  8.3308186118235039e-01  1.6281871540361337e+00  1.5013629632579164e+00  1.2825016259505186e+00  2.1087992956885171e-01  1.6101693103625887e+00  1.6377155717401930e+00  1.5764028437466249e+00  1.3211953168491357e+00  1.6502293789033065e+00  1.3514942085049073e+00  1.1547306199688296e+00  9.1661250026140406e-01  2.0126042997543020e-01  1.6078223951692430e+00  1.6457549857642322e+00  1.6458632363524577e+00  1.5967027055071261e+00  1.6177840243880772e+00  2.0711035915022347e-01  8.0734071372394300e-01  2.0384233927700957e-01  1.4874604706631134e+00  2.0178505229785265e-01  9.3904651397576522e-01  1.6463217719306116e+00  1.9672921541290239e-01  1.3868640803734182e+00  1.1388561675756896e+00  1.1386761296997974e+00  5.4075344751589471e-01  1.4870348362258554e+00  1.6452733490338756e+00  1.6456223572402180e+00  1.6450578046799984e+00  1.9288018813248828e-01  2.4645498820755890e-01  2.0198283994133420e-01  1.6229144930465926e+00  1.5782661565401637e+00  1.1415870700630684e+00  6.3867943994275156e-01  1.9436765064499234e-01  8.6869038091472461e-01  1.4169654115885943e+00  8.3710984496802698e-01  1.6496235025732648e+00  1.5988645614628694e+00  5.9394359521599094e-01  7.3938068340509011e-01  1.6495785511338656e+00  1.6251655352488439e+00  1.4473008620999170e+00  1.5583008168017074e+00  2.0063432523272970e-01  1.5393311669479783e+00  1.3461391175221848e+00  1.4506760188729348e+00  1.5317350074572555e+00  1.3853220835032212e+00  1.6346171826818576e+00  1.5601757559439668e+00  9.0449565437305879e-01  5.8598553060649516e-01  1.5319981147149122e+00  1.5664603361240645e+00  1.0542784558169254e+00  1.4333744901797845e+00  1.0505278461390961e+00  1.5798988776718681e+00  1.6191150566131991e+00  1.6009132650863036e+00  1.4719712010928137e+00  1.6495681868972352e+00  8.2010924868912660e-01  3.0135086048110238e-01  1.4725502063028166e+00  4.4231538355402727e-01  1.4674341401897832e+00  1.2313146584534167e+00  1.3629974425553502e+00  1.4539513970835329e+00  1.1243593974522119e+00  1.5741138517823750e+00  1.5419082162741238e+00  1.4151120178505774e+00  1.2714463395046438e+00  1.6262871584724623e+00  0.0000000000000000e+00  1.6487334381682128e+00  1.6393754459855163e+00  1.3072986635307138e+00  1.2947096345293789e+00  6.1460459321998484e-01  1.6512446160369623e+00  1.6362269755740024e+00  9.6198497687509621e-01  1.2778728425927166e+00  1.4741145324068436e+00  1.0101100074736196e+00  1.1025750562217189e+00  0.0000000000000000e+00  1.5486518748745970e+00  1.9497512880238790e-01  5.6394294731871963e-01  1.6280799338103475e+00  5.0094979378117022e-01  2.4563844476154986e-01  9.6294037627342777e-01  1.3672854707897579e+00  1.4473281717318762e+00  2.2302946354336087e-01  1.1234166133278094e+00  5.0503677637211364e-01  6.4788503712581968e-01  1.3947992979769479e+00  1.5836504765420549e+00  6.4639866285521785e-01  1.5838396943242867e+00  1.9414369931566652e-01  1.5364202693989564e+00  1.4524153358905496e+00  6.2533038330197566e-01  1.0267762600645032e+00  8.9962987986325316e-01  1.6251042994826965e+00  6.0502092970724886e-01  6.2896617332303129e-01  1.0242732570804982e+00  0.0000000000000000e+00  1.4840661265930892e+00  0.0000000000000000e+00  1.0599418429689018e+00  1.3710991372517098e+00  1.4290682759553759e+00  1.1926233678350200e+00  1.6515339403612659e+00  1.6361942307066157e+00  1.5669750227186297e+00  1.3147408187773373e+00  1.5007214718219462e+00  0.0000000000000000e+00  2.2545977478124854e-01  9.8282577197803966e-01  1.9270118253238405e-01  7.7989167023116679e-01  1.2777350038364694e+00  4.3061913179621963e-01  1.0978399910397219e+00  8.4524536901558711e-01  6.7742058292028373e-01  3.3451211661790375e-01  0.0000000000000000e+00  4.9869152534738914e-01  5.0483279815757320e-01  5.3935135994619021e-01  1.6481123568868274e+00  0.0000000000000000e+00  1.0610467098070828e+00  8.5255644746851633e-01  1.6499777925147201e+00  1.4894870263338813e+00  1.5946173712884892e+00  1.5699549618058286e+00  1.4879902682856683e+00  1.5875719192620441e+00  1.6506636574000058e+00  7.3059614025516184e-01  1.1755070399231409e+00  9.0857132147025699e-01  1.2047063190368819e+00  1.6298019349859214e+00  1.6369023895609183e+00  0.0000000000000000e+00  1.0554464634431526e+00  2.2087679092579271e-01  2.6958135631272134e-01  1.2632453945760973e+00  1.3274712154194748e+00  1.5554701601605232e+00  2.5291755534710941e-01  7.9291652951241742e-01  1.6005494245971399e+00  1.4304160227740701e+00  1.5513912970000892e+00  1.2666614645350602e+00  1.6112053467460177e+00  1.6424828754028358e+00  1.3208260499959075e+00  1.9810748157567290e-01  2.1256099432212758e-01  2.1761785097144076e-01  1.5806121354315932e+00  5.7905631578046124e-01  1.4127329168622522e+00  1.6305759907854940e+00  1.6057127392408055e+00  1.5668567850450825e+00  9.8526367356113898e-01  1.2000973910293589e+00  4.8544136879145422e-01  2.0595798897216530e-01  1.6133849320664302e+00  1.3217029439194481e+00  1.4027039797784246e+00  1.5394701582204926e+00  1.5345433540845983e+00  1.5274672880923263e+00  1.2716623211932758e+00  1.2203297840064484e+00  1.3966220828131670e+00  1.9409818198503176e-01  0.0000000000000000e+00  1.2304273473799807e+00  1.6297830828112629e+00  1.6343739551941525e+00  1.5823096281501698e+00  5.7978611214577569e-01  2.1759022965966551e-01  1.6512076211668583e+00  7.4372107741994642e-01  7.7812720116530620e-01  1.4078956716542295e+00  1.4652148907301492e+00  7.0377116409700924e-01  5.6731014201394281e-01  8.5210631397294390e-01  8.9182904311250311e-01  1.6396793834616692e+00  6.6172697549675497e-01  8.7563344423010292e-01  8.8784714288999156e-01  1.4995698413526366e+00  1.0352803290148647e+00  1.0609237102255291e+00  1.5431527955550703e+00  1.4878286487907240e+00  8.0098500610815404e-01  1.2818689774659955e+00  3.9763227109249000e-01  1.2124467780345836e+00  1.5997913925428857e+00  2.0743471928662630e-01  4.6920703516631174e-01  1.6485869030430031e+00  4.9575304657376129e-01  6.0296957298445963e-01  4.7459700550999079e-01  9.4346580251111423e-01  1.4564458628002761e+00  1.6510411882078844e+00  5.8576127443418025e-01  1.5199754688171019e+00  1.5717346196941007e+00  1.1738332724622551e+00  1.1636267844607859e+00  6.7268959363830294e-01  1.1154076909000847e+00  1.1076933992913638e+00  1.5504373812357226e+00  1.5839173426446922e+00  1.3648163832432099e+00  1.6505324026422346e+00  9.6420900231716355e-01  1.6261830449137087e+00  1.5208818965327517e+00  4.9760345254612631e-01  1.4474356038948419e+00  8.2910375333047170e-01  1.6400077619048194e+00  8.9935005706624416e-01  2.0492030584834967e-01  4.2119277302817071e-01  5.5074606522043390e-01  7.1173264424704341e-01  1.6247730413205856e+00  1.5957163221522452e+00  1.6174689407282519e+00  1.0884411451212987e+00  1.5351602469723942e+00  1.4882681464047525e+00  1.3428640586552771e+00  1.3837313327246588e+00  1.6444870581625115e+00  0.0000000000000000e+00  1.1688257402953619e+00  1.0272393404195961e+00  7.8825880984698482e-01  6.5926749909409221e-01  9.4349818847670253e-01  8.2316010580818400e-01  1.6506570578462068e+00  6.1093202686146675e-01  1.4465853050017825e+00  9.9416824565887740e-01  1.0801183668003949e+00  1.2607597660863774e+00  0.0000000000000000e+00  5.4361892023400882e-01  5.1553986959236520e-01  8.4839066055348866e-01  7.8873202517796170e-01  8.4039184723331195e-01  1.3757598355621949e+00  1.2723455949534421e+00  1.4915487606144533e+00  1.5398460165461281e+00  8.2728922406605476e-01  0.0000000000000000e+00  1.9521877448999600e-01  4.5993355331254154e-01  1.6310058678886274e+00  5.8701633503953521e-01  1.1386321650002567e+00  1.6046384549648960e+00  1.6411892072533838e+00  8.0802513105748408e-01  1.2108892580838810e+00  8.9675529026660894e-01  3.1035453635390647e-01  1.5664576248880302e+00  1.4680173527968174e+00  1.6456581995587491e+00  1.6508413123211245e+00  2.7055744895528855e-01  8.5038623841506178e-01  2.0458261100903788e-01  1.6518160682620857e+00  2.6425208745718948e-01  1.5481752337738555e+00  1.1072128126633130e+00  8.4846700043731405e-01  0.0000000000000000e+00  0.0000000000000000e+00  0.0000000000000000e+00  1.9306172065673211e-01  0.0000000000000000e+00  0.0000000000000000e+00  1.4879294333686639e+00  5.4416217110360976e-01  0.0000000000000000e+00  0.0000000000000000e+00  1.4876426449072342e+00  0.0000000000000000e+00  0.0000000000000000e+00  1.6455900128121972e+00  1.6451450849867726e+00  1.5956354385422060e+00  1.5957000564471155e+00  1.6454865574614985e+00  1.6457008323406981e+00  0.0000000000000000e+00  1.3215015084161308e+00  0.0000000000000000e+00  0.0000000000000000e+00  1.1070874096852164e+00  0.0000000000000000e+00  0.0000000000000000e+00  5.4359904010774041e-01  0.0000000000000000e+00  0.0000000000000000e+00  8.4842015809596116e-01  0.0000000000000000e+00  5.4367028225448177e-01  1.9406495821337921e-01  0.0000000000000000e+00  1.5958702252325192e+00  0.0000000000000000e+00  1.1074117667536851e+00  0.0000000000000000e+00  1.3213754668682884e+00  8.4820376729900460e-01  1.1995135442415663e+00  1.3638507486295433e+00  4.6027197894513228e-01  1.2208647796586112e+00  1.2004556295793705e+00  1.3928238740400136e+00  1.3915338593456004e+00  1.3062355280662346e+00  1.1303880534730864e+00  1.1028042813332781e+00  1.3624291489381990e+00  1.6737254058928647e-01  1.1668826469982807e+00  9.9703501369437131e-01  1.2901848508415030e+00  1.5954716413064116e+00  1.4999807854551499e+00  1.5533399149549418e+00  1.6443469916459741e+00  1.6903714762838482e-01  1.0939984300726340e+00  1.3026939924666141e+00  1.6336098934892698e+00  1.6515790601535902e+00  1.3899874219915305e+00  1.6438621732295533e+00  1.6257725806766476e+00  1.5693667728591720e+00  1.3785052932767297e+00  1.6455124739799254e+00  1.5584046920629036e+00  1.2007059079862952e+00  1.6130967782399257e+00  1.6401963552189562e+00  8.5799469675496598e-01  1.6018226548068510e+00  1.5272884310326951e+00  1.3566326235205242e+00  1.4923555455995667e+00  1.6208173839222419e+00  1.2567859413309479e+00  1.0558581887097813e+00  1.6455457959181259e+00  1.0432777975776428e+00  1.4516935141116813e+00  1.4951228574384803e+00  1.6340847203158924e+00  8.1219986820536472e-01  1.6117819931173336e+00  1.6368375622098856e+00  1.6473151123362226e+00  1.6273350506814912e+00  1.3321603880007271e+00  1.4435420612742162e+00  1.3318162903320494e+00  1.1646651180748226e+00  1.2198993250309234e+00  4.8351071875682800e-01  1.4019715910342525e+00  1.3288213825218196e+00  1.5339772246949770e+00  4.8920752011977531e-01  3.7306707566577629e-01  1.1702353204763936e+00  1.2768366001916005e+00  1.5348123217331533e+00  5.3509729397955230e-01  9.2282479233023040e-01  1.5291719168324345e+00  1.4830326480880074e+00  1.4011106846612145e+00  5.3171147314325895e-01  8.1573617639604568e-01  6.9133817597368474e-01  4.6668221525012021e-01  1.6169478310779306e+00  1.1232347573900743e+00  1.3517495415236003e+00  1.5518345119354715e+00  1.1907619361033128e+00  1.2587170496204234e+00  1.4499390306007200e+00  1.6071717845212974e-01  1.6373812424274747e+00  1.6173167199050980e+00  1.6505269303653600e+00  1.6422121225914281e+00  1.5082577588954318e+00  1.3959946462044939e+00  4.0148852139501884e-01  1.6479323971856334e+00  1.4364809166768160e+00  1.5282628037765045e+00  8.5540469215640336e-01  6.8214187973177831e-01  1.0656196368277908e+00  5.0119019350159433e-01  6.5172718428669418e-01  6.8428875225607699e-01  1.3484826438494504e+00  5.3001350926865010e-01  1.8249426666267216e-01  1.6150590649200378e+00  1.9396954396378877e-01  1.3713766190346830e+00  1.6495264370695069e+00  1.0563648291386341e+00  9.8507083945175933e-01  1.4366423392506795e+00  1.6392965028178654e+00  9.6699871179101382e-01  1.6118490342914515e+00  1.7339200465883386e-01  3.9766491689559114e-01  2.7895771669052355e-01  1.0566598314610709e+00  9.7435492095539467e-01  1.1030496515825607e+00  1.6144394345902738e-01  8.4588807367650509e-01  1.2998170925231225e+00  3.5935258970301776e-01  1.5910278623423382e+00  1.8721775917677025e-01  5.1746296330065300e-01  7.5258199001209825e-01  6.4898839850363466e-01  4.9139038399966889e-01  1.4953257060221599e+00  1.23561