<?xml version="1.0"?>
<VTKFile type="UnstructuredGrid"  version="0.1"  >
<UnstructuredGrid>
<Piece  NumberOfPoints="2513" NumberOfCells="4852">
<Points>
<DataArray  type="Float64"  NumberOfComponents="3"  format="ascii">-1 1 0  -1 -1 0  1 -1 0  1 1 0  0 -1 0  1 0 0  0 1 0  -1 0 0  0 0 0  -1 -0.5 0  -0.5 -1 0  -0.5 1 0  -1 0.5 0  1 -0.5 0  0.5 -1 0  1 0.5 0  0.5 1 0  0.4166666666666666 -0.4166666666666667 0  -0.4166666666666667 0.4166666666666667 0  -0.25 -0.5 0  0.5 0.25 0  -0.4861111111111112 -0.06944444444444445 0  0.0732758620689655 0.507183908045977 0  -0.625 -0.625 0  0.625 0.625 0  0.7380952380952381 -0.25 0  -0.7099116161616161 0.2105429292929293 0  -0.25 0.7380952380952381 0  0.105392156862745 -0.6348039215686275 0  0.6770833333333334 -0.6770833333333333 0  -0.6770833333333334 0.6770833333333334 0  0.3472222222222222 -0.06944444444444446 0  -0.7264957264957265 -0.3044871794871795 0  0.3141940982507127 0.7297313660835709 0  0.02049587951122483 -0.3227479397556124 0  -0.2690972222222223 0.1475694444444444 0  0.3859500089908372 -0.7274430156831472 0  -0.2228477945123298 -0.1761765495248019 0  0.2182539682539683 0.1884920634920635 0  0.75 0.375 0  -0.145442219440968 -0.7602211097204841 0  0.7088913690476191 0.0427827380952381 0  -0.75 -1 0  -1 -0.75 0  1 0.75 0  0.75 1 0  -0.7439982703698937 -0.04614153195464455 0  -0.4609235096577606 -0.3356498099556895 0  0.4063134471431929 0.4895621842856023 0  0.25 -1 0  -0.25 -1 0  -0.75 1 0  0.75 -1 0  -1 -0.25 0  -1 0.25 0  1 -0.25 0  -0.25 1 0  1 -0.75 0  -1 0.75 0  0.25 1 0  1 0.25 0  -0.4041423272138783 -0.7597141090712928 0  0.06500839607911253 0.7578103030529481 0  -0.1572801182352047 0.3838997021864289 0  -0.6528005242053915 0.4409494757946086 0  -0.4930160984848485 0.1544744318181818 0  -0.4732142857142858 0.7752976190476191 0  0.6398809523809523 -0.4538690476190476 0  0.5166054117396399 -0.2161233620965164 0  -0.002273787244753427 0.2232363985975174 0  0.1500564496765022 -0.1524955293952667 0  0.2016720420046758 -0.4410343282803009 0  -0.08495178036419618 0.6274139771124571 0  -0.8367311471133162 0.3642591720794645 0  -0.8333333333333334 -0.625 0  -0.594323836800685 -0.8231079456002283 0  -0.4466957714776065 -0.5349126855671806 0  0.8125 0.5625 0  0.78125 0.78125 0  0.5091392650016769 0.7947130883338923 0  0.125 -0.8382681931833136 0  -0.8184523809523809 -0.8184523809523809 0  -0.07781530426104531 -0.5819319697006881 0  0.5085055196703295 0.04967610411902112 0  0.2918471072074933 -0.276017202318847 0  0.5120763537765269 -0.5898771553229597 0  0.625 -0.8585349462365591 0  0.8158532234335381 -0.8158532234335381 0  -0.5198088446315396 0.5739411553684605 0  -0.8585349462365591 0.625 0  -0.8150493805516597 0.8156205699829586 0  0.8585349462365591 -0.625 0  -0.2688268348649726 0.5439331383603209 0  0.8242100426758139 -0.4436043596336612 0  0.5833756314287952 0.4479378157143976 0  0.8690476190476191 -0.125 0  -0.125 0.8690476190476191 0  -0.8692745600729823 0.125 0  0.8696725120759167 0.125 0  -0.625 0.8711516477451908 0  0.2339522463269718 0.3879558377955778 0  0.2453709502295031 0.5655822922838026 0  0.1730610651637797 0.02021709580868947 0  0.3245402594056757 -0.5644672020485209 0  -0.7291666666666666 -0.4816595441595442 0  -1 -0.375 0  -0.5811140848639904 -0.2127276307675001 0  0.673332592838314 0.2158348143233718 0  0.375 1 0  -0.5714768890989919 0.2985103444040069 0  -1 -0.125 0  -0.8453692574786325 -0.1875 0  -0.3144549134065865 -0.02408675326008025 0  -0.2898414972096258 -0.3336092734780093 0  -0.1075052092206287 -0.4224330421314983 0  -0.05043970703604117 -0.1652278959397459 0  0.6459672950297897 -0.1113415301525317 0  0.4645210271029513 0.6398480556579343 0  0.3512863754411909 0.0937979496253573 0  -0.6063160985568274 0.03891469652249891 0  -0.3428819444444445 0.8690476190476191 0  0.625 1 0  -0.1602164796159982 0.02697860906625157 0  0.04648110064133829 -0.4808416424239687 0  1 0.875 0  -0.3836102479201657 0.6484936449177356 0  -0.3776011723096096 0.263078478984336 0  -0.6024978259969829 -0.3949628096211138 0  0.125 1 0  0.2010781308272777 0.8456221018461906 0  0.2822509696388829 -0.845902544691141 0  -0.3285533674953515 -0.6289773550938936 0  0.3461306793221754 0.278777492464833 0  0.4737475672408696 -0.8508448959534423 0  0.2384632828836344 -0.7029523187242811 0  -0.004777287059791593 0.3759269695907358 0  -0.8499735021850066 -0.3912320205328522 0  0.1222536293721587 0.2963971539625205 0  -0.3769456520999688 -0.203572526805711 0  -0.2749617205755651 -0.8464290792698902 0  0.004805888512766143 -0.747174355248311 0  -0.125 -1 0  -0.06001061822252458 -0.8724007765244854 0  0.875 0.4375 0  0.854421179608893 0.271342359217786 0  0.875 1 0  -0.1499861095763589 0.2358309656934888 0  0.3381943639137225 0.8663061796405532 0  -0.7853090110442228 0.4998412775277108 0  0.7398165998560814 -0.5535192694951373 0  0.1580042122341573 -0.3100246140259917 0  -0.7291666666666667 -0.7142857142857142 0  -0.375 -1 0  0.6483368386154684 0.8514905990110488 0  -0.1295370103291928 -0.2826118305021242 0  0.07458201853700455 0.1123894386563915 0  0.6146465857036327 -0.3161203659316075 0  0.5551898493894731 -0.740296118159085 0  0.375 -1 0  0.482702798370208 -0.084133350091034 0  0.87890625 0.68359375 0  -0.05917195534525846 0.4971092425697621 0  0.1260710309213975 0.6343750312956699 0  0.8690476190476191 -0.3077066815262848 0  -0.2912010232560567 0.3668168386732139 0  -0.875 1 0  -1 0.875 0  1 -0.875 0  0.875 -1 0  -0.8689564281364567 -0.006189266075306407 0  -0.7449425635110547 0.08458938160051771 0  -0.7150266761936593 -0.1739444581417552 0  -0.5260034831318311 -0.711099823962112 0  -0.4724626808827322 -0.871722230709409 0  0.4734436795977052 0.377714794132168 0  -0.875 -1 0  -1 -0.875 0  0.6927189078571988 0.5156567235715964 0  -0.3742497615796874 -0.4296005251260107 0  -0.1969436423297711 -0.6387157229772615 0  -0.6179496409766825 -0.08933356056510935 0  -0.424405057115988 0.04452428810878029 0  -0.08479048335844169 0.1279607007132633 0  0.003830300099055113 0.8712085230656206 0  0.8748778838820267 -1.379218479898026e-05 0  -0.375 1 0  -0.625 1 0  1 0.125 0  -0.125 1 0  1 -0.375 0  1 -0.125 0  1 -0.625 0  0.625 -1 0  0.125 -1 0  -0.625 -1 0  -1 -0.625 0  -1 0.125 0  -1 0.375 0  -1 0.625 0  1 0.375 0  1 0.625 0  0.6325660748712082 0.3335187599557389 0  -0.06420945895056573 0.7549874027425891 0  -0.8769015540914771 0.2478802253893416 0  0.871875 0.871875 0  -0.6868091492840067 0.3270978624973681 0  -0.5363597469565949 0.412994850055505 0  -0.6803734992638302 0.5574295000651103 0  -0.7076253581162534 -0.8803439094224437 0  -0.8778089002295137 -0.5106896447504627 0  -0.3860184984222981 0.530566778071246 0  0.6109900617121508 0.1128453077697081 0  0.3896945134930274 -0.1915382873255086 0  0.7605656944697778 -0.06822134873122943 0  0.3576151269893478 0.5948388411612135 0  -0.5689902680792265 -0.5143596830118065 0  0.6262446286847614 -0.5735657901943212 0  0.2030558252325225 -0.5625263842513452 0  0.6123273142928579 0.7407533260723429 0  0.4016460890123554 -0.3042863223111857 0  -0.59039693199147 0.7578418819188018 0  0.7276932493917544 -0.3705808024528924 0  0.5222536818742854 -0.4713886230400014 0  -0.5101986527137737 0.8848365765607674 0  0.510560172809238 0.5356013299918891 0  -0.3603569195756083 0.75823710606415 0  0.1967279277813232 0.728226870058472 0  -0.6086880986371127 0.1545624071548516 0  -0.38105366729386 0.1511189987807864 0  -0.2944659463671584 -0.7359061804869591 0  0.5060729154966499 -0.3475227845833823 0  -0.09281616240412746 -0.06197858250969457 0  0.7649739583333334 0.6673177083333334 0  0.7628906249999999 0.890234375 0  -0.2666864184909611 0.2585504071132311 0  0.3635064892129658 0.3878003602709461 0  -0.2339409722222222 0.8901937905844155 0  -0.1718792125974916 -0.8957733325456778 0  0.1001768566329531 0.4023510017391879 0  0.3120260172693757 -0.4540546875576884 0  0.7804062804433681 0.1896628610854537 0  0.4087715451998049 0.187961780041608 0  -0.1584963477271457 0.5451611892421655 0  -0.8926817849258324 0.463022006336401 0  0.2338091473445219 -0.07576267331277289 0  0.08171112182813692 -0.2349087687359925 0  0.04635385178956847 -0.1044635073718474 0  -0.4377391632114205 -0.6448874471423088 0  -0.1907678351227189 0.6480215912813945 0  0.300605946475244 0.4741444604171038 0  -0.2145033720757486 -0.06751709909419711 0  0.6069191921170397 -0.005492331448357812 0  0.0214718770761248 0.6032397936031719 0  0.5476675683364878 0.8992752415326501 0  0.4387475014316537 0.9093708953002239 0  -0.4932997685306436 -0.4381009159993523 0  0.2515197695339056 -0.1791673369138964 0  -0.7291666666666667 -0.6088789682539681 0  -0.9166666666666667 -0.6875 0  0.620579540363709 -0.2122431523583302 0  -0.484950136419973 0.6719440339397442 0  0.2857044415400258 0.0137589173127316 0  -0.8945708364098356 -0.288306105327986 0  0.4043102720140535 0.7842914560451557 0  0.04123256238752064 -0.9026968245801402 0  0.2003676884403109 -0.9091888601740487 0  0.1068775558538842 -0.7373377130403223 0  -0.4804566783514427 -0.1763307203045643 0  0.108286342087769 -0.3993789328997278 0  -0.191883080105361 -0.3640821726430649 0  -0.07025064492006244 0.2984876656890053 0  -0.7039324641409584 0.788312126296613 0  -0.7311286585775438 0.8932502354831682 0  0.5171409396884947 0.1503852691889257 0  0.4229392823658633 -0.003216522184234835 0  -0.5621736087218259 -0.919558629836806 0  -0.626474064879544 -0.7266572613636506 0  0.2446828746617422 0.2867616783302419 0  0.1759429608742923 0.4776611759306416 0  -0.3468240303741654 -0.5260416435617549 0  -0.7465808808425306 0.4069574477998361 0  -0.7819962170660292 0.2802441065650652 0  -0.3742623214119594 -0.8547800509641984 0  0.1014498009713561 0.8506721983266377 0  0.4285217620918213 -0.5230190595570253 0  0.4091738370487775 -0.6256346204225141 0  0.78125 0.46875 0  0.90625 0.53125 0  -0.4791801348852565 0.2553992655702126 0  0.7843318610782772 -0.7086046956885941 0  0.8909728264971901 -0.7355183796514634 0  0.7041908166528879 -0.7830649143180282 0  0.7311821352
[...]
<PointData  Scalars="velocity-2"> 
<DataArray  type="Float64"  Name="velocity-2"  format="ascii">0.0000000000000000e+00  0.0000000000000000e+00  0.0000000000000000e+00  0.0000000000000000e+00  0.0000000000000000e+00  1.5182237942875394e+00  0.0000000000000000e+00  1.5181722622596283e+00  1.5169785062200660e+00  1.1399386917437582e+00  0.0000000000000000e+00  0.0000000000000000e+00  1.1392930862741899e+00  1.1400895439676522e+00  0.0000000000000000e+00  1.1396843207045930e+00  0.0000000000000000e+00  1.2554842263667598e+00  1.2553122838687338e+00  1.1405342464258630e+00  1.4231996313756037e+00  1.5107429350973214e+00  1.1283487999436008e+00  9.2654031297052941e-01  9.2684850327275814e-01  1.4235462325686437e+00  1.4505270182982650e+00  6.9253962460436869e-01  9.0796448391447648e-01  8.2397777222527335e-01  8.2429900520610055e-01  1.5102602799067448e+00  1.3778804419707396e+00  7.1156912421783369e-01  1.3600195126379633e+00  1.4849411760035343e+00  7.1651370649991575e-01  1.4697149421170530e+00  1.4636707638655819e+00  1.3043624998976584e+00  6.4216792506955078e-01  1.5149570333361111e+00  0.0000000000000000e+00  6.6638905206289645e-01  6.6664035196184501e-01  0.0000000000000000e+00  1.5148745114946496e+00  1.3464694861588162e+00  1.1546412933803838e+00  0.0000000000000000e+00  0.0000000000000000e+00  0.0000000000000000e+00  0.0000000000000000e+00  1.4234723357427281e+00  1.4235271034219554e+00  1.4234184948915571e+00  0.0000000000000000e+00  6.6643488901334280e-01  6.6637567864594593e-01  0.0000000000000000e+00  1.4237285678451950e+00  6.4400068981401093e-01  6.4802932859675744e-01  1.2948996954400711e+00  1.2235114811077050e+00  1.4810627041731654e+00  6.0749112539484074e-01  1.2057117009682832e+00  1.4477718964613844e+00  1.4424446972754388e+00  1.4822432097414080e+00  1.2235586335229438e+00  9.2199494456769004e-01  1.3172960781703629e+00  9.2694450941260331e-01  4.9083511074428054e-01  1.0852702205426370e+00  1.0392650554814733e+00  5.9322874144011151e-01  5.6064420448183483e-01  4.5249078793625080e-01  5.0330096317790252e-01  1.0054706263998601e+00  1.5140353592289051e+00  1.4023946654782420e+00  9.9098336428239853e-01  4.0038853189228263e-01  5.0970303995111299e-01  1.0189742256804222e+00  9.2672894358591151e-01  5.0996080685047240e-01  9.2709506183084611e-01  1.0705826847756954e+00  1.2201630929735849e+00  1.2136662697688152e+00  1.4939601368083915e+00  3.7245966729854424e-01  1.4944378044080933e+00  1.4941418342323236e+00  3.6695673662299566e-01  1.2898671364704311e+00  1.0338216867187824e+00  1.5174313676096389e+00  1.0356434409478348e+00  1.1670410397831055e+00  1.3053993682859557e+00  1.4500951941037186e+00  1.4472063539552038e+00  0.0000000000000000e+00  1.3824206267702006e+00  1.4946504253369262e+00  1.4643991460423673e+00  1.5160229989284411e+00  1.3495614069513815e+00  1.2475763623957867e+00  1.4767977276609967e+00  1.4988001958666934e+00  8.9840544479370477e-01  1.5044249331330344e+00  1.5154173695582345e+00  3.7202393776976034e-01  0.0000000000000000e+00  1.5176847654769920e+00  1.1675913911576139e+00  3.5714178906129340e-01  8.8149498050193920e-01  1.4123489561531994e+00  1.2821014746460184e+00  0.0000000000000000e+00  4.3402819031298229e-01  4.3287392932599628e-01  9.1951308873408888e-01  1.4002898838681241e+00  4.2054712817744749e-01  7.6933725156398713e-01  1.3042011036820658e+00  1.2860888926204359e+00  1.3850679821671057e+00  1.4543324729797147e+00  4.3206460097924632e-01  6.7248251326156150e-01  0.0000000000000000e+00  3.6363689210896954e-01  1.2282993053598499e+00  1.4065861631393353e+00  0.0000000000000000e+00  1.4337950338455308e+00  3.7998752618290332e-01  1.1401088851800825e+00  1.0539405857832889e+00  1.3723959417063911e+00  7.4559710930309608e-01  0.0000000000000000e+00  4.1786502387601021e-01  1.3969705006102904e+00  1.4985116788490969e+00  1.3667981407374132e+00  6.8769992111869538e-01  0.0000000000000000e+00  1.5067393162981395e+00  8.1072590084413210e-01  1.1441167970066395e+00  9.0878480266198658e-01  1.3745677703810653e+00  1.3142347669870129e+00  0.0000000000000000e+00  3.5768933111755813e-01  3.5715537498523214e-01  0.0000000000000000e+00  1.5178691498066257e+00  1.5060061176816675e+00  1.4716231607513597e+00  7.5165370512429874e-01  3.6567865491535712e-01  1.3009223547388926e+00  0.0000000000000000e+00  3.5724277498278623e-01  1.1158219653463799e+00  1.2387318144084303e+00  9.0062095904009720e-01  1.5058805647907754e+00  1.5144251704375575e+00  1.4928187790579897e+00  3.6762744530977587e-01  1.5176715243171433e+00  0.0000000000000000e+00  0.0000000000000000e+00  1.4947624887125268e+00  0.0000000000000000e+00  1.3052874764743816e+00  1.4946472522696674e+00  9.2679176219641501e-01  0.0000000000000000e+00  0.0000000000000000e+00  0.0000000000000000e+00  9.2693866247533008e-01  1.4943807385052419e+00  1.3051586009147751e+00  9.2730171564590513e-01  1.3055381258039276e+00  9.2705017351100105e-01  1.3496171937355514e+00  6.5449782404923540e-01  1.4251127289309471e+00  3.6462731276055155e-01  1.3560153593634914e+00  1.2597662915718095e+00  1.0476959489550486e+00  3.4350738690088256e-01  1.1233974333864680e+00  1.0916154344768518e+00  1.4984011624170828e+00  1.4624917590572220e+00  1.5106791123799672e+00  9.8212441013711538e-01  1.1176745649988895e+00  1.0197190680217074e+00  1.0387345352867199e+00  6.8702766412855276e-01  1.3777325322154166e+00  6.4811159117967110e-01  1.3096572785802574e+00  1.1821580004224215e+00  3.3094700038812952e-01  1.0834724987815560e+00  6.4761736918089918e-01  7.1524350840686879e-01  1.4812671391639278e+00  1.4831831098286317e+00  6.9782948516616627e-01  1.3351254153866796e+00  1.5123001137448662e+00  8.4394927701740996e-01  3.1568960146835151e-01  1.4162764031931432e+00  1.2903008579118551e+00  3.1592743670277590e-01  3.0022494236303493e-01  1.2727974907297872e+00  1.2054624308513668e+00  1.4628968336148567e+00  1.4640134483047453e+00  1.0682674979709521e+00  1.1932154709946103e+00  1.5091089678011858e+00  1.4346382168284511e+00  1.5012462819447165e+00  8.8927191590492771e-01  8.8218482465351233e-01  1.1771353432351834e+00  1.5102751052241499e+00  1.5184295009591742e+00  9.6719348326131993e-01  2.9167249843265414e-01  2.6360283852860622e-01  1.2275282822356604e+00  1.4686150221496530e+00  9.5729045419166336e-01  8.0233978355308688e-01  1.4494581206070998e+00  8.3466405500756102e-01  1.5173237436022007e+00  1.3920372749050773e+00  5.8639118069963725e-01  2.8130520521890540e-01  2.6340101428599821e-01  6.9426183422979615e-01  1.4705500187116121e+00  1.2759661208259629e+00  1.3173923652845636e+00  1.3829321492319748e+00  5.7650419262524588e-01  3.0786744885060779e-01  1.4835609995420145e+00  1.5175226329542386e+00  2.3495752158713232e-01  7.1874164708358590e-01  1.3930496619438484e+00  1.1725753805634078e+00  1.0992004529162065e+00  1.2674485947787191e+00  1.3984402034472603e+00  4.0975259404925329e-01  4.2087519006243773e-01  1.1043133574610156e+00  9.2536675204585639e-01  1.1863355132041313e+00  1.0912120540761330e+00  1.4190764735137513e+00  7.5837227784389771e-01  6.9858882554224744e-01  5.8870825635482182e-01  3.1469716493250816e-01  5.1737677144639649e-01  7.4809857236384059e-01  7.5862527145586356e-01  1.2118813642842010e+00  2.4715762367458244e-01  3.3370714879606589e-01  5.8607261868366589e-01  7.2918798959178321e-01  2.5229199158655391e-01  3.0980161506909537e-01  8.8012090199432758e-01  8.7585768335181624e-01  4.8484886214368422e-01  8.0899917734464821e-01  1.0118661616907405e+00  1.0641821368346660e+00  9.8461917062467486e-01  1.4677306314713796e+00  1.4575351406519654e+00  1.5019904228102299e+00  1.2061624920186889e+00  1.0542628002744647e+00  2.0782519543428016e-01  1.1021432280035459e+00  1.2812972280400208e+00  6.0144469773433495e-01  9.4587965909374738e-01  1.1502480459734177e+00  1.1142285788665141e+00  1.3264513478023521e+00  1.3994258886272841e+00  1.5103704602426433e+00  8.6191686382233190e-01  1.5036950475337258e+00  6.0219210001107870e-01  7.8842718312068871e-01  1.4958969473801484e+00  1.3821026166632140e+00  1.1948156399469081e+00  2.0174158033402159e-01  1.4777677666500297e+00  1.5045796252177857e+00  1.4471687990791420e+00  1.2282719178118882e+00  1.5167164880682296e+00  1.2542625583634530e+00  1.0820494355400960e+00  8.6580123527405117e-01  1.9250961265529890e-01  1.4763960944883214e+00  1.5122685372032003e+00  1.5125202332508605e+00  1.4656903413300488e+00  1.4851678742449668e+00  1.9822691977409884e-01  7.6487161391727787e-01  1.9478826192374024e-01  1.3701813876342837e+00  1.9285307891673076e-01  8.8665298439074403e-01  1.5122419243520606e+00  1.8789321127630609e-01  1.2849671177979523e+00  1.0676869220804939e+00  1.0674533286144670e+00  5.1483480948635796e-01  1.3699598931540220e+00  1.5118757595489634e+00  1.5121447869686329e+00  1.5119283304396789e+00  1.8458501246448833e-01  2.3537281291935519e-01  1.9311142188636396e-01  1.4904430439108034e+00  1.4490131177275809e+00  1.0701856109385603e+00  6.0740862436425702e-01  1.8566939880780123e-01  8.2114977714468473e-01  1.3108944605872674e+00  7.9271104004514081e-01  1.5164927994152624e+00  1.4676802911954807e+00  5.6532443147044864e-01  7.0109035430915279e-01  1.5160622504839378e+00  1.4926050746779338e+00  1.3363277138723406e+00  1.4306748747616522e+00  1.9204596621161621e-01  1.4148647948812600e+00  1.2495206030887647e+00  1.3391789070270088e+00  1.4081143814813752e+00  1.2830844333344344e+00  1.5009718159512178e+00  1.4330431465116154e+00  8.5482828770798802e-01  5.5787659391974687e-01  1.4086560373070633e+00  1.4385128292675933e+00  9.9170015794422761e-01  1.3240748618645231e+00  9.8805185672652085e-01  1.4505002852249889e+00  1.4860412133378849e+00  1.4697332058264803e+00  1.3568864097018145e+00  1.5159497840138396e+00  7.7693549613839363e-01  2.8779189954367262e-01  1.3573783024650394e+00  4.2111754606033897e-01  1.3532808411454069e+00  1.1496213536191842e+00  1.2644488627357846e+00  1.3419508189180498e+00  1.0550209735883729e+00  1.4458874938174446e+00  1.4167917805173913e+00  1.3087131635152709e+00  1.1847930462884815e+00  1.4937641279644627e+00  0.0000000000000000e+00  1.5153742396454222e+00  1.5065928035527687e+00  1.2161560735096411e+00  1.2048729839797374e+00  5.8454998868809094e-01  1.5175729527765669e+00  1.5031010003604297e+00  9.0711477836533438e-01  1.1902194746259573e+00  1.3584869188420332e+00  9.5108783374634975e-01  1.0352205647205630e+00  0.0000000000000000e+00  1.4224057562154804e+00  1.8620885328769293e-01  5.3712774766201210e-01  1.4951163801058416e+00  4.7732658736104544e-01  2.3489633325349671e-01  9.0902920870248616e-01  1.2676655847478737e+00  1.3359671848960433e+00  2.1317702236526062e-01  1.0537684851927871e+00  4.8115447735758482e-01  6.1590702693972865e-01  1.2917034273542558e+00  1.4531596244033755e+00  6.1445726913906928e-01  1.4539601190947995e+00  1.8561761200182675e-01  1.4123555686443678e+00  1.3401323977940911e+00  5.9406134297007906e-01  9.6649068925968040e-01  8.5010174764665747e-01  1.4923824220843249e+00  5.7540563930901156e-01  5.9814586970409001e-01  9.6392075756752438e-01  0.0000000000000000e+00  1.3676485407785339e+00  0.0000000000000000e+00  9.9672938701923008e-01  1.2713302225272747e+00  1.3206025136218384e+00  1.1156775774533871e+00  1.5176567679787298e+00  1.5036061183715084e+00  1.4392738570146977e+00  1.2226703314948841e+00  1.3815144508916879e+00  0.0000000000000000e+00  2.1558516522702081e-01  9.2635893608148934e-01  1.8425892408538896e-01  7.3926716197841680e-01  1.1905158794613016e+00  4.1062846187596264e-01  1.0308297909347497e+00  7.9972128982412372e-01  6.4363441100825991e-01  3.1951765931313403e-01  0.0000000000000000e+00  4.7522884028218104e-01  4.8094531627679721e-01  5.1350936912947609e-01  1.5145669922327407e+00  0.0000000000000000e+00  9.9779882072157733e-01  8.0661228842599042e-01  1.5160101360046556e+00  1.3721285657788043e+00  1.4642935573143689e+00  1.4418348164661927e+00  1.3705040894356908e+00  1.4577414351204878e+00  1.5169273661092033e+00  6.9321720029421952e-01  1.1005148572813661e+00  8.5734641832603897e-01  1.1263737788148342e+00  1.4966998249364198e+00  1.5036374936062404e+00  0.0000000000000000e+00  9.9237576504359537e-01  2.1108085389799508e-01  2.5713356704166596e-01  1.1784613916934681e+00  1.2336709550452551e+00  1.4286794681233355e+00  2.4154564001640852e-01  7.5027430991917532e-01  1.4699848148381085e+00  1.3217559553997327e+00  1.4254481560699341e+00  1.1812652004857493e+00  1.4793368464211318e+00  1.5092926128552295e+00  1.2279374349789789e+00  1.8920456983644415e-01  2.0323586755687129e-01  2.0772488852953433e-01  1.4514093468025242e+00  5.5087423100814070e-01  1.3070656137692924e+00  1.4975288500750317e+00  1.4742265230372509e+00  1.4384069857507560e+00  9.2871173628928239e-01  1.1224412716412016e+00  4.6250883277545030e-01  1.9666364455410312e-01  1.4816630591070574e+00  1.2286712745970101e+00  1.2983048932476466e+00  1.4144566308835065e+00  1.4097873983339870e+00  1.4044545292634645e+00  1.1854324351948680e+00  1.1402174662789191e+00  1.2930316884343880e+00  1.8562559916229376e-01  0.0000000000000000e+00  1.1490220312953556e+00  1.4970400232923635e+00  1.5008820889451708e+00  1.4524490164237742e+00  5.5162770270761530e-01  2.0796337174397353e-01  1.5174876774668371e+00  7.0532302679419068e-01  7.3768030193357048e-01  1.3026141365160684e+00  1.3512291240959078e+00  6.6760972271847907e-01  5.3977405832482217e-01  8.0643658214878411e-01  8.4308620216507013e-01  1.5064091864906741e+00  6.2880009797549130e-01  8.2844949034861748e-01  8.3933507975302490e-01  1.3802729355364634e+00  9.7429303706151904e-01  9.9782504784749393e-01  1.4181699833003905e+00  1.3705110430312746e+00  7.5879715686879723e-01  1.1941359415861132e+00  3.7914323780255033e-01  1.1334168671586220e+00  1.4688846201912986e+00  1.9838159174029776e-01  4.4730367180936703e-01  1.5154283944057350e+00  4.7253566224958954e-01  5.7376419013120450e-01  4.5238958947023483e-01  8.9048947046440441e-01  1.3441055279449785e+00  1.5180646211458568e+00  5.5733644056824982e-01  1.3979704250117599e+00  1.4431181350122768e+00  1.0985830583148024e+00  1.0899524862705712e+00  6.3948276541211313e-01  1.0461836844937047e+00  1.0397380916856329e+00  1.4243173410938359e+00  1.4543220053382406e+00  1.2658252700951684e+00  1.5172883665681445e+00  9.0954548298594995e-01  1.4935774771947652e+00  1.3980280227962978e+00  4.7408649446955498e-01  1.3365490733856178e+00  7.8540082918582488e-01  1.5070142015965469e+00  8.4960947715034174e-01  1.9578781271608170e-01  4.0201971787573559e-01  5.2417877255954970e-01  6.7552090131156384e-01  1.4920186132883664e+00  1.4647689549778808e+00  1.4851155689030457e+00  1.0222632981144331e+00  1.4111720247707837e+00  1.3699977635525276e+00  1.2466494549426406e+00  1.2821394785863198e+00  1.5116375362621097e+00  0.0000000000000000e+00  1.0946718460768463e+00  9.6735398351091328e-01  7.4738333261531120e-01  6.2662408226783184e-01  8.8976544732020701e-01  7.7950007651402453e-01  1.5166925428182025e+00  5.8069858938953478e-01  1.3349455669345236e+00  9.3686825481048219e-01  1.0151831204534922e+00  1.1754534114556932e+00  0.0000000000000000e+00  5.1761884959595850e-01  4.9105318376569623e-01  8.0288054523030727e-01  7.4722606681104264e-01  7.9573734585256650e-01  1.2751714302309480e+00  1.1856796516239243e+00  1.3736807912787943e+00  1.4147414094300967e+00  7.8290874701351076e-01  0.0000000000000000e+00  1.8665758204253727e-01  4.3779599400303670e-01  1.4981370096552766e+00  5.5824663577335365e-01  1.0672778913846734e+00  1.4735604284522632e+00  1.5079607246808078e+00  7.6519270799908301e-01  1.1319553808310694e+00  8.4765014892937307e-01  2.9634728091318124e-01  1.4391122955976954e+00  1.3536928975120339e+00  1.5123167334394041e+00  1.5172540804605068e+00  2.5849962208184135e-01  8.0414423716613126e-01  1.9548380311788371e-01  1.5182175991115558e+00  2.5299495661855126e-01  1.4224281183821810e+00  1.0392715713954168e+00  8.0280108145720375e-01  0.0000000000000000e+00  0.0000000000000000e+00  0.0000000000000000e+00  1.8457778580408324e-01  0.0000000000000000e+00  0.0000000000000000e+00  1.3705821391167659e+00  5.1809256334946763e-01  0.0000000000000000e+00  0.0000000000000000e+00  1.3703231277227557e+00  0.0000000000000000e+00  0.0000000000000000e+00  1.5120266356446475e+00  1.5117661429932479e+00  1.4647704584589432e+00  1.4647534446532218e+00  1.5120434603548656e+00  1.5122427983375166e+00  0.0000000000000000e+00  1.2286514286987704e+00  0.0000000000000000e+00  0.0000000000000000e+00  1.0390289575222544e+00  0.0000000000000000e+00  0.0000000000000000e+00  5.1758131333156654e-01  0.0000000000000000e+00  0.0000000000000000e+00  8.0272414442159257e-01  0.0000000000000000e+00  5.1769868080760373e-01  1.8560856803779471e-01  0.0000000000000000e+00  1.4649629364849526e+00  0.0000000000000000e+00  1.0394583498439953e+00  0.0000000000000000e+00  1.2284944613949413e+00  8.0259841473769700e-01  1.1211168627537891e+00  1.2646871647939308e+00  4.3877085999772064e-01  1.1407129140105003e+00  1.1227088111093499e+00  1.2894376662160230e+00  1.2886831721794361e+00  1.2151649669403757e+00  1.0598181623928276e+00  1.0351442399033626e+00  1.2640641530283097e+00  1.6010473990360330e-01  1.0926629969884325e+00  9.3990054840313697e-01  1.2014777264075289e+00  1.4648463860456911e+00  1.3809292627725263e+00  1.4268853069041187e+00  1.5109462345042675e+00  1.6166590189984320e-01  1.0275043193173778e+00  1.2121610417246338e+00  1.5000415999665169e+00  1.5179854283645424e+00  1.2875494676885917e+00  1.5105350684242458e+00  1.4931566431306535e+00  1.4412355931345098e+00  1.2780527194825204e+00  1.5120241208569760e+00  1.4312606255105407e+00  1.1230144868120908e+00  1.4812039240946748e+00  1.5065095351088440e+00  8.1196963328287652e-01  1.4701796172846053e+00  1.4044825695729730e+00  1.2592173800169721e+00  1.3743407400795999e+00  1.4879101030860196e+00  1.1719182868243854e+00  9.9308749002490482e-01  1.5125011114116675e+00  9.8141030723627021e-01  1.3399526104116584e+00  1.3765358342924303e+00  1.5011573632252417e+00  7.6946975807907469e-01  1.4798974863948906e+00  1.5034858478135860e+00  1.5137344243535877e+00  1.4946792779356948e+00  1.2377579325653605e+00  1.3328893108180249e+00  1.2370040193816636e+00  1.0910188630115654e+00  1.1398253259959739e+00  4.6071417784025548e-01  1.2977973256581772e+00  1.2350420798447788e+00  1.4098672943448629e+00  4.6638856690631875e-01  3.5581801001554653e-01  1.0951498910761641e+00  1.1897871520571002e+00  1.4111405873962097e+00  5.0922564596566211e-01  8.7141448208056449e-01  1.4054455987632386e+00  1.3662239410834611e+00  1.2967024886048277e+00  5.0638664781705434e-01  7.7218403959927595e-01  6.5691922673025882e-01  4.4507224226516107e-01  1.4846991723416194e+00  1.0528342591452156e+00  1.2541543510417801e+00  1.4257131462712203e+00  1.1139144886468006e+00  1.1739306673723271e+00  1.3381867427816709e+00  1.5366675632864230e-01  1.5040926033986521e+00  1.4846414630505822e+00  1.5168652944681347e+00  1.5087090133222567e+00  1.3882233151402039e+00  1.2924338726428661e+00  3.8291337060919850e-01  1.5150430989418695e+00  1.3267828450744505e+00  1.4051551674231133e+00  8.0871256227705635e-01  6.4793662458851631e-01  1.0015912139557792e+00  4.7771006274936023e-01  6.1948912702007164e-01  6.4985891111480332e-01  1.2521495003257692e+00  5.0455251086104291e-01  1.7437391576524613e-01  1.4824970225419882e+00  1.8526146273673602e-01  1.2717302904742698e+00  1.5159264299164683e+00  9.9357665656833727e-01  9.2861761721814717e-01  1.3268207253489459e+00  1.5062546321020509e+00  9.1209212554263996e-01  1.4796788515401833e+00  1.6585018344298910e-01  3.7976741338753289e-01  2.6642983749994742e-01  9.9364208287458000e-01  9.1853143816724936e-01  1.0355153045215635e+00  1.5430502581797426e-01  8.0052681535957748e-01  1.2097272131103858e+00  3.4322504826879485e-01  1.4610770751687381e+00  1.7899761656790017e-01  4.9323349314851411e-01  7.1313053974619767e-01  6.1640323059623703e-01  4.6835369666932281e-01  1.3768582534033511e+00  1.15396