<?xml version="1.0"?>
<VTKFile type="UnstructuredGrid"  version="0.1"  >
<UnstructuredGrid>
<Piece  NumberOfPoints="2513" NumberOfCells="4852">
<Points>
<DataArray  type="Float64"  NumberOfComponents="3"  format="ascii">-1 1 0  -1 -1 0  1 -1 0  1 1 0  0 -1 0  1 0 0  0 1 0  -1 0 0  0 0 0  -1 -0.5 0  -0.5 -1 0  -0.5 1 0  -1 0.5 0  1 -0.5 0  0.5 -1 0  1 0.5 0  0.5 1 0  0.4166666666666666 -0.4166666666666667 0  -0.4166666666666667 0.4166666666666667 0  -0.25 -0.5 0  0.5 0.25 0  -0.4861111111111112 -0.06944444444444445 0  0.0732758620689655 0.507183908045977 0  -0.625 -0.625 0  0.625 0.625 0  0.7380952380952381 -0.25 0  -0.7099116161616161 0.2105429292929293 0  -0.25 0.7380952380952381 0  0.105392156862745 -0.6348039215686275 0  0.6770833333333334 -0.6770833333333333 0  -0.6770833333333334 0.6770833333333334 0  0.3472222222222222 -0.06944444444444446 0  -0.7264957264957265 -0.3044871794871795 0  0.3141940982507127 0.7297313660835709 0  0.02049587951122483 -0.3227479397556124 0  -0.2690972222222223 0.1475694444444444 0  0.3859500089908372 -0.7274430156831472 0  -0.2228477945123298 -0.1761765495248019 0  0.2182539682539683 0.1884920634920635 0  0.75 0.375 0  -0.145442219440968 -0.7602211097204841 0  0.7088913690476191 0.0427827380952381 0  -0.75 -1 0  -1 -0.75 0  1 0.75 0  0.75 1 0  -0.7439982703698937 -0.04614153195464455 0  -0.4609235096577606 -0.3356498099556895 0  0.4063134471431929 0.4895621842856023 0  0.25 -1 0  -0.25 -1 0  -0.75 1 0  0.75 -1 0  -1 -0.25 0  -1 0.25 0  1 -0.25 0  -0.25 1 0  1 -0.75 0  -1 0.75 0  0.25 1 0  1 0.25 0  -0.4041423272138783 -0.7597141090712928 0  0.06500839607911253 0.7578103030529481 0  -0.1572801182352047 0.3838997021864289 0  -0.6528005242053915 0.4409494757946086 0  -0.4930160984848485 0.1544744318181818 0  -0.4732142857142858 0.7752976190476191 0  0.6398809523809523 -0.4538690476190476 0  0.5166054117396399 -0.2161233620965164 0  -0.002273787244753427 0.2232363985975174 0  0.1500564496765022 -0.1524955293952667 0  0.2016720420046758 -0.4410343282803009 0  -0.08495178036419618 0.6274139771124571 0  -0.8367311471133162 0.3642591720794645 0  -0.8333333333333334 -0.625 0  -0.594323836800685 -0.8231079456002283 0  -0.4466957714776065 -0.5349126855671806 0  0.8125 0.5625 0  0.78125 0.78125 0  0.5091392650016769 0.7947130883338923 0  0.125 -0.8382681931833136 0  -0.8184523809523809 -0.8184523809523809 0  -0.07781530426104531 -0.5819319697006881 0  0.5085055196703295 0.04967610411902112 0  0.2918471072074933 -0.276017202318847 0  0.5120763537765269 -0.5898771553229597 0  0.625 -0.8585349462365591 0  0.8158532234335381 -0.8158532234335381 0  -0.5198088446315396 0.5739411553684605 0  -0.8585349462365591 0.625 0  -0.8150493805516597 0.8156205699829586 0  0.8585349462365591 -0.625 0  -0.2688268348649726 0.5439331383603209 0  0.8242100426758139 -0.4436043596336612 0  0.5833756314287952 0.4479378157143976 0  0.8690476190476191 -0.125 0  -0.125 0.8690476190476191 0  -0.8692745600729823 0.125 0  0.8696725120759167 0.125 0  -0.625 0.8711516477451908 0  0.2339522463269718 0.3879558377955778 0  0.2453709502295031 0.5655822922838026 0  0.1730610651637797 0.02021709580868947 0  0.3245402594056757 -0.5644672020485209 0  -0.7291666666666666 -0.4816595441595442 0  -1 -0.375 0  -0.5811140848639904 -0.2127276307675001 0  0.673332592838314 0.2158348143233718 0  0.375 1 0  -0.5714768890989919 0.2985103444040069 0  -1 -0.125 0  -0.8453692574786325 -0.1875 0  -0.3144549134065865 -0.02408675326008025 0  -0.2898414972096258 -0.3336092734780093 0  -0.1075052092206287 -0.4224330421314983 0  -0.05043970703604117 -0.1652278959397459 0  0.6459672950297897 -0.1113415301525317 0  0.4645210271029513 0.6398480556579343 0  0.3512863754411909 0.0937979496253573 0  -0.6063160985568274 0.03891469652249891 0  -0.3428819444444445 0.8690476190476191 0  0.625 1 0  -0.1602164796159982 0.02697860906625157 0  0.04648110064133829 -0.4808416424239687 0  1 0.875 0  -0.3836102479201657 0.6484936449177356 0  -0.3776011723096096 0.263078478984336 0  -0.6024978259969829 -0.3949628096211138 0  0.125 1 0  0.2010781308272777 0.8456221018461906 0  0.2822509696388829 -0.845902544691141 0  -0.3285533674953515 -0.6289773550938936 0  0.3461306793221754 0.278777492464833 0  0.4737475672408696 -0.8508448959534423 0  0.2384632828836344 -0.7029523187242811 0  -0.004777287059791593 0.3759269695907358 0  -0.8499735021850066 -0.3912320205328522 0  0.1222536293721587 0.2963971539625205 0  -0.3769456520999688 -0.203572526805711 0  -0.2749617205755651 -0.8464290792698902 0  0.004805888512766143 -0.747174355248311 0  -0.125 -1 0  -0.06001061822252458 -0.8724007765244854 0  0.875 0.4375 0  0.854421179608893 0.271342359217786 0  0.875 1 0  -0.1499861095763589 0.2358309656934888 0  0.3381943639137225 0.8663061796405532 0  -0.7853090110442228 0.4998412775277108 0  0.7398165998560814 -0.5535192694951373 0  0.1580042122341573 -0.3100246140259917 0  -0.7291666666666667 -0.7142857142857142 0  -0.375 -1 0  0.6483368386154684 0.8514905990110488 0  -0.1295370103291928 -0.2826118305021242 0  0.07458201853700455 0.1123894386563915 0  0.6146465857036327 -0.3161203659316075 0  0.5551898493894731 -0.740296118159085 0  0.375 -1 0  0.482702798370208 -0.084133350091034 0  0.87890625 0.68359375 0  -0.05917195534525846 0.4971092425697621 0  0.1260710309213975 0.6343750312956699 0  0.8690476190476191 -0.3077066815262848 0  -0.2912010232560567 0.3668168386732139 0  -0.875 1 0  -1 0.875 0  1 -0.875 0  0.875 -1 0  -0.8689564281364567 -0.006189266075306407 0  -0.7449425635110547 0.08458938160051771 0  -0.7150266761936593 -0.1739444581417552 0  -0.5260034831318311 -0.711099823962112 0  -0.4724626808827322 -0.871722230709409 0  0.4734436795977052 0.377714794132168 0  -0.875 -1 0  -1 -0.875 0  0.6927189078571988 0.5156567235715964 0  -0.3742497615796874 -0.4296005251260107 0  -0.1969436423297711 -0.6387157229772615 0  -0.6179496409766825 -0.08933356056510935 0  -0.424405057115988 0.04452428810878029 0  -0.08479048335844169 0.1279607007132633 0  0.003830300099055113 0.8712085230656206 0  0.8748778838820267 -1.379218479898026e-05 0  -0.375 1 0  -0.625 1 0  1 0.125 0  -0.125 1 0  1 -0.375 0  1 -0.125 0  1 -0.625 0  0.625 -1 0  0.125 -1 0  -0.625 -1 0  -1 -0.625 0  -1 0.125 0  -1 0.375 0  -1 0.625 0  1 0.375 0  1 0.625 0  0.6325660748712082 0.3335187599557389 0  -0.06420945895056573 0.7549874027425891 0  -0.8769015540914771 0.2478802253893416 0  0.871875 0.871875 0  -0.6868091492840067 0.3270978624973681 0  -0.5363597469565949 0.412994850055505 0  -0.6803734992638302 0.5574295000651103 0  -0.7076253581162534 -0.8803439094224437 0  -0.8778089002295137 -0.5106896447504627 0  -0.3860184984222981 0.530566778071246 0  0.6109900617121508 0.1128453077697081 0  0.3896945134930274 -0.1915382873255086 0  0.7605656944697778 -0.06822134873122943 0  0.3576151269893478 0.5948388411612135 0  -0.5689902680792265 -0.5143596830118065 0  0.6262446286847614 -0.5735657901943212 0  0.2030558252325225 -0.5625263842513452 0  0.6123273142928579 0.7407533260723429 0  0.4016460890123554 -0.3042863223111857 0  -0.59039693199147 0.7578418819188018 0  0.7276932493917544 -0.3705808024528924 0  0.5222536818742854 -0.4713886230400014 0  -0.5101986527137737 0.8848365765607674 0  0.510560172809238 0.5356013299918891 0  -0.3603569195756083 0.75823710606415 0  0.1967279277813232 0.728226870058472 0  -0.6086880986371127 0.1545624071548516 0  -0.38105366729386 0.1511189987807864 0  -0.2944659463671584 -0.7359061804869591 0  0.5060729154966499 -0.3475227845833823 0  -0.09281616240412746 -0.06197858250969457 0  0.7649739583333334 0.6673177083333334 0  0.7628906249999999 0.890234375 0  -0.2666864184909611 0.2585504071132311 0  0.3635064892129658 0.3878003602709461 0  -0.2339409722222222 0.8901937905844155 0  -0.1718792125974916 -0.8957733325456778 0  0.1001768566329531 0.4023510017391879 0  0.3120260172693757 -0.4540546875576884 0  0.7804062804433681 0.1896628610854537 0  0.4087715451998049 0.187961780041608 0  -0.1584963477271457 0.5451611892421655 0  -0.8926817849258324 0.463022006336401 0  0.2338091473445219 -0.07576267331277289 0  0.08171112182813692 -0.2349087687359925 0  0.04635385178956847 -0.1044635073718474 0  -0.4377391632114205 -0.6448874471423088 0  -0.1907678351227189 0.6480215912813945 0  0.300605946475244 0.4741444604171038 0  -0.2145033720757486 -0.06751709909419711 0  0.6069191921170397 -0.005492331448357812 0  0.0214718770761248 0.6032397936031719 0  0.5476675683364878 0.8992752415326501 0  0.4387475014316537 0.9093708953002239 0  -0.4932997685306436 -0.4381009159993523 0  0.2515197695339056 -0.1791673369138964 0  -0.7291666666666667 -0.6088789682539681 0  -0.9166666666666667 -0.6875 0  0.620579540363709 -0.2122431523583302 0  -0.484950136419973 0.6719440339397442 0  0.2857044415400258 0.0137589173127316 0  -0.8945708364098356 -0.288306105327986 0  0.4043102720140535 0.7842914560451557 0  0.04123256238752064 -0.9026968245801402 0  0.2003676884403109 -0.9091888601740487 0  0.1068775558538842 -0.7373377130403223 0  -0.4804566783514427 -0.1763307203045643 0  0.108286342087769 -0.3993789328997278 0  -0.191883080105361 -0.3640821726430649 0  -0.07025064492006244 0.2984876656890053 0  -0.7039324641409584 0.788312126296613 0  -0.7311286585775438 0.8932502354831682 0  0.5171409396884947 0.1503852691889257 0  0.4229392823658633 -0.003216522184234835 0  -0.5621736087218259 -0.919558629836806 0  -0.626474064879544 -0.7266572613636506 0  0.2446828746617422 0.2867616783302419 0  0.1759429608742923 0.4776611759306416 0  -0.3468240303741654 -0.5260416435617549 0  -0.7465808808425306 0.4069574477998361 0  -0.7819962170660292 0.2802441065650652 0  -0.3742623214119594 -0.8547800509641984 0  0.1014498009713561 0.8506721983266377 0  0.4285217620918213 -0.5230190595570253 0  0.4091738370487775 -0.6256346204225141 0  0.78125 0.46875 0  0.90625 0.53125 0  -0.4791801348852565 0.2553992655702126 0  0.7843318610782772 -0.7086046956885941 0  0.8909728264971901 -0.7355183796514634 0  0.7041908166528879 -0.7830649143180282 0  0.7311821352
[...]
<PointData  Scalars="velocity-2"> 
<DataArray  type="Float64"  Name="velocity-2"  format="ascii">0.0000000000000000e+00  0.0000000000000000e+00  0.0000000000000000e+00  0.0000000000000000e+00  0.0000000000000000e+00  1.5135013819079672e+00  0.0000000000000000e+00  1.5134511046090224e+00  1.5122832199090752e+00  1.1332747381860280e+00  0.0000000000000000e+00  0.0000000000000000e+00  1.1326367333205767e+00  1.1334226167210977e+00  0.0000000000000000e+00  1.1330205730937348e+00  0.0000000000000000e+00  1.2493643715854053e+00  1.2491433191478423e+00  1.1338575238793984e+00  1.4179275379701810e+00  1.5060109587852200e+00  1.1216521835812909e+00  9.1940931739308496e-01  9.1973596197895280e-01  1.4183021872521497e+00  1.4454417360404628e+00  6.8616401043601205e-01  9.0085600369231866e-01  8.1703400636749424e-01  8.1736661449039805e-01  1.5055398232514323e+00  1.3723535898173329e+00  7.0509259486704889e-01  1.3543925583780720e+00  1.4800055388990325e+00  7.1001267118284594e-01  1.4647619343727849e+00  1.4586454930759154e+00  1.2985077929843243e+00  6.3608557870692495e-01  1.5102235801176356e+00  0.0000000000000000e+00  6.6016087910330423e-01  6.6040577872341977e-01  0.0000000000000000e+00  1.5101607128624404e+00  1.3408538121063447e+00  1.1480251225111511e+00  0.0000000000000000e+00  0.0000000000000000e+00  0.0000000000000000e+00  0.0000000000000000e+00  1.4182438341721586e+00  1.4182954668206798e+00  1.4181835653949262e+00  0.0000000000000000e+00  6.6021129838416959e-01  6.6014535975139055e-01  0.0000000000000000e+00  1.4185017004112614e+00  6.3788458579620311e-01  6.4195599075158027e-01  1.2889348171535342e+00  1.2172424138444677e+00  1.4761533828981541e+00  6.0171348687339532e-01  1.1993121068603867e+00  1.4426926025701690e+00  1.4373573519254774e+00  1.4773112965805204e+00  1.2172344313415731e+00  9.1491490619512894e-01  1.3114828616542460e+00  9.1981726196797120e-01  4.8603170595341205e-01  1.0784146447798049e+00  1.0322687515902766e+00  5.8752790313292680e-01  5.5522044391022118e-01  4.4798970513530922e-01  4.9834696750108431e-01  9.9839983270919164e-01  1.5092838537683206e+00  1.3970558939525537e+00  9.8393528017575171e-01  3.9642692757028292e-01  5.0469871292149415e-01  1.0119391979292673e+00  9.1963323705040689e-01  5.0489366841809891e-01  9.1992646920352972e-01  1.0637012966959551e+00  1.2138795587883282e+00  1.2073424813664719e+00  1.4891098645419478e+00  3.6879830773124933e-01  1.4896048231728796e+00  1.4892966012977011e+00  3.6331346470326026e-01  1.2839239349468401e+00  1.0268040420147702e+00  1.5126756530000092e+00  1.0286459213666481e+00  1.1604673303627446e+00  1.2995299732452343e+00  1.4450092588243006e+00  1.4420972207923375e+00  0.0000000000000000e+00  1.3769387083438671e+00  1.4897902364417135e+00  1.4593749543366203e+00  1.5113343642203054e+00  1.3439139973256948e+00  1.2413801109468241e+00  1.4719184539073287e+00  1.4939683654096125e+00  8.9128124526904573e-01  1.4996343742535352e+00  1.5107445367396013e+00  3.6835237631597012e-01  0.0000000000000000e+00  1.5129245891165297e+00  1.1610272947581983e+00  3.5359676985250060e-01  8.7444735435945964e-01  1.4070328879861906e+00  1.2760947204089073e+00  0.0000000000000000e+00  4.2974019278070485e-01  4.2857496403137457e-01  9.1230813951036294e-01  1.3948983634277605e+00  4.1636756186378771e-01  7.6256327062258189e-01  1.2982846360378730e+00  1.2801213652254166e+00  1.3796168227593786e+00  1.4492760177344410e+00  4.2776245876207430e-01  6.6622479401422541e-01  0.0000000000000000e+00  3.6000422048961350e-01  1.2220434699645413e+00  1.4012623704976497e+00  0.0000000000000000e+00  1.4286547187043148e+00  3.7621307424952338e-01  1.1334395346862505e+00  1.0469499599385526e+00  1.3668494399832525e+00  7.3891095492412162e-01  0.0000000000000000e+00  4.1371577446507601e-01  1.3915971338686266e+00  1.4937460311480082e+00  1.3612805858057377e+00  6.8142105195835745e-01  0.0000000000000000e+00  1.5019770376785069e+00  8.0380157472035352e-01  1.1374774414165589e+00  9.0169909042583263e-01  1.3690798159551798e+00  1.3084161828450971e+00  0.0000000000000000e+00  3.5414167312727701e-01  3.5361387454684468e-01  0.0000000000000000e+00  1.5131287787504522e+00  1.5012581471875843e+00  1.4666371259238846e+00  7.4497406824342272e-01  3.6206506345576234e-01  1.2950180668138029e+00  0.0000000000000000e+00  3.5370285417689218e-01  1.1090616031151077e+00  1.2325255606691685e+00  8.9351540017280284e-01  1.5011080588179666e+00  1.5096961457539091e+00  1.4879669922967349e+00  3.6394873578588272e-01  1.5129475763911395e+00  0.0000000000000000e+00  0.0000000000000000e+00  1.4899216761766592e+00  0.0000000000000000e+00  1.2994357490100201e+00  1.4897926373008668e+00  9.1966890801151446e-01  0.0000000000000000e+00  0.0000000000000000e+00  0.0000000000000000e+00  9.1980334429380806e-01  1.4895327517513031e+00  1.2992897646556751e+00  9.2015605765695219e-01  1.2996791300010477e+00  9.1990578230715714e-01  1.3439804380862228e+00  6.4844884893043475e-01  1.4198794987539656e+00  3.6101055460357601e-01  1.3504340516914350e+00  1.2536568100526535e+00  1.0407397769631355e+00  3.4011431623243787e-01  1.1166538378074802e+00  1.0847473630990048e+00  1.4935936005002515e+00  1.4574035411213382e+00  1.5059219556076593e+00  9.7501993233213258e-01  1.1109396537993459e+00  1.0126690932083389e+00  1.0317631476361233e+00  6.8070520666708922e-01  1.3722624765790570e+00  6.4199809904580629e-01  1.3037878410329720e+00  1.1756504640003984e+00  3.2768125728137265e-01  1.0766359088503228e+00  6.4153162622860882e-01  7.0870104605151951e-01  1.4763605822807240e+00  1.4782964633861588e+00  6.9138053138038935e-01  1.3294292946623170e+00  1.5075302805376596e+00  8.3692924569882943e-01  3.1258685360997690e-01  1.4109939774918603e+00  1.2843751843747957e+00  3.1282434970010509e-01  2.9723534488425191e-01  1.2667454126754505e+00  1.1991247537724885e+00  1.4578711434417353e+00  1.4590543690380136e+00  1.0613054433772524e+00  1.1867773267785657e+00  1.5043754446702742e+00  1.4294586838084620e+00  1.4964959607223107e+00  8.8206032202910900e-01  8.7513294131677977e-01  1.1705926904114450e+00  1.5055018545643004e+00  1.5137355098291145e+00  9.6011464192901697e-01  2.8880609557264886e-01  2.6099656320981562e-01  1.2212744530240018e+00  1.4636222848230953e+00  9.5013116807414277e-01  7.9544051733803267e-01  1.4443699252867037e+00  8.2763681010172208e-01  1.5126483876561299e+00  1.3866347998025390e+00  5.8078246609125883e-01  2.7853270236215649e-01  2.6078787268552273e-01  6.8785992058951251e-01  1.4655983624889830e+00  1.2699735574672093e+00  1.3115511095030721e+00  1.3774619750267136e+00  5.7093255437092127e-01  3.0483644044992242e-01  1.4786372140594495e+00  1.5128588994710197e+00  2.3261384914161928e-01  7.1218907221119654e-01  1.3876836436176836e+00  1.1661511148878425e+00  1.0923495661517866e+00  1.2614282958809961e+00  1.3930582129753428e+00  4.0566986407589634e-01  4.1673003662343272e-01  1.0975122704085274e+00  9.1824533011668896e-01  1.1798768724972235e+00  1.0843519108819610e+00  1.4138031956849655e+00  7.5155368616138729e-01  6.9220458517017780e-01  5.8305884840505007e-01  3.1155127597286358e-01  5.1233312783072371e-01  7.4143703791916771e-01  7.5187609142525946e-01  1.2055526917037367e+00  2.4472514067559401e-01  3.3042663159607477e-01  5.8043035637107954e-01  7.2263273640495718e-01  2.4979156090750662e-01  3.0671957736715061e-01  8.7307979736046493e-01  8.6877235279159548e-01  4.8008005251289371e-01  8.0206223640430063e-01  1.0048327192804867e+00  1.0572301495906429e+00  9.7757998628816867e-01  1.4627800341780701e+00  1.4525345586725018e+00  1.4971637845165235e+00  1.1997919993100594e+00  1.0473094794943343e+00  2.0575781592792619e-01  1.0953124482719796e+00  1.2753030301296657e+00  5.9570296709683945e-01  9.3878364350334065e-01  1.1435849144960026e+00  1.1074808205892059e+00  1.3207630969170412e+00  1.3940676871841235e+00  1.5055933146626959e+00  8.5487011393531154e-01  1.4989377996694693e+00  5.9651729749839455e-01  7.8160628390662434e-01  1.4910129031094865e+00  1.3765972392738592e+00  1.1883330372564249e+00  1.9975454028078685e-01  1.4728379834896765e+00  1.4997852228327067e+00  1.4420501418702174e+00  1.2219982319263203e+00  1.5120159731574454e+00  1.2481061198424408e+00  1.0751645865912132e+00  8.5879471778309646e-01  1.9061493548453665e-01  1.4714887074011618e+00  1.5075067878639059e+00  1.5077767048454622e+00  1.4606821105907724e+00  1.4802883079907367e+00  1.9630162905067824e-01  7.5812869323763810e-01  1.9286564369026904e-01  1.3646613983591589e+00  1.9096745625528863e-01  8.7955530017558647e-01  1.5074864763913634e+00  1.8603171774686605e-01  1.2789617415397450e+00  1.0607105033554385e+00  1.0605462521086833e+00  5.0980825959465037e-01  1.3644344566116624e+00  1.5071169729543910e+00  1.5073999217222076e+00  1.5071492514099378e+00  1.8278046443825860e-01  2.3303873610460721e-01  1.9120496119441224e-01  1.4855728711097294e+00  1.4439074336993862e+00  1.0633037142294401e+00  6.0158791245546483e-01  1.8384617670827422e-01  8.1415852767863461e-01  1.3050676693955701e+00  7.8589376449473047e-01  1.5117862416169303e+00  1.4626799815067806e+00  5.5982142102090127e-01  6.9464993435084743e-01  1.5113430407037718e+00  1.4877430322836593e+00  1.3305945283208513e+00  1.4254919469177161e+00  1.9015846554644586e-01  1.4096102281522116e+00  1.2433743606438079e+00  1.3335043327486120e+00  1.4027751153542560e+00  1.2770933671097220e+00  1.4961442500153406e+00  1.4278564284568382e+00  8.4781272805720320e-01  5.5248956715904363e-01  1.4033432839551911e+00  1.4333328189268109e+00  9.8465252836524342e-01  1.3183175904244127e+00  9.8096361983965463e-01  1.4454166218997191e+00  1.4811546242681815e+00  1.4647441064906854e+00  1.3512327475319725e+00  1.5112475739205986e+00  7.7020625937326337e-01  2.8493274136363855e-01  1.3517785365361525e+00  4.1694533497955205e-01  1.3476461679648974e+00  1.1429831707981448e+00  1.2583652998515762e+00  1.3362548708637436e+00  1.0481011886903429e+00  1.4407880612180004e+00  1.4115123423755545e+00  1.3029014868434976e+00  1.1783264711761958e+00  1.4889528613198351e+00  0.0000000000000000e+00  1.5106384795203256e+00  1.5018149897766084e+00  1.2097898900239781e+00  1.1984889364196269e+00  5.7891350093728489e-01  1.5128624822619308e+00  1.4983405230785476e+00  8.9997733920382417e-01  1.1837564046611173e+00  1.3529249023889518e+00  9.4397842991663927e-01  1.0282456653626197e+00  0.0000000000000000e+00  1.4171355472130129e+00  1.8438095477927063e-01  5.3191928448505665e-01  1.4903106361230791e+00  4.7258577367920335e-01  2.3257602600694013e-01  9.0190502653027116e-01  1.2615703544994585e+00  1.3302191452360868e+00  2.1107824252128504e-01  1.0467950776930348e+00  4.7641573343489235e-01  6.1000453286293410e-01  1.2857594635685008e+00  1.4480812488664483e+00  6.0855902827919595e-01  1.4488344419233088e+00  1.8381387406424107e-01  1.4070707413317818e+00  1.3344149351772121e+00  5.8834386774309289e-01  9.5936740201758242e-01  8.4306655752351944e-01  1.4875417610627286e+00  5.6985128090188686e-01  5.9247275339975247e-01  9.5680518685051474e-01  0.0000000000000000e+00  1.3620556390583500e+00  0.0000000000000000e+00  9.8969878467422745e-01  1.2652742580887810e+00  1.3148125793228926e+00  1.1089132757697784e+00  1.5129216106285019e+00  1.4988491587816042e+00  1.4341219292664915e+00  1.2163793541976722e+00  1.3760752266726326e+00  0.0000000000000000e+00  2.1347780104133537e-01  9.1922395923995592e-01  1.8244329587897887e-01  7.3259589388874125e-01  1.1840505292234360e+00  4.0652222592969284e-01  1.0237632822145537e+00  7.9275887919317489e-01  6.3755487761736274e-01  3.1633326871964557e-01  0.0000000000000000e+00  4.7054259646857832e-01  4.7623012615028154e-01  5.0849444929167920e-01  1.5098497102189639e+00  0.0000000000000000e+00  9.9064414021259550e-01  7.9972916913855319e-01  1.5112887993512403e+00  1.3666069806928096e+00  1.4592657220689069e+00  1.4367267152727701e+00  1.3649916071116539e+00  1.4526902277090097e+00  1.5122170685210221e+00  6.8686134497535800e-01  1.0937078339465343e+00  8.5029310631749211e-01  1.1196250234052658e+00  1.4919162960598591e+00  1.4988745431065555e+00  0.0000000000000000e+00  9.8532198185888442e-01  2.0903167630009362e-01  2.5457381261534223e-01  1.1720351726082927e+00  1.2274166687097183e+00  1.4234725248919755e+00  2.3916268658800238e-01  7.4354304602544530e-01  1.4649988526232658e+00  1.3159592966975902e+00  1.4202362017898507e+00  1.1747862494040304e+00  1.4744233356077965e+00  1.5044864255547934e+00  1.2216760926116732e+00  1.8734938905992773e-01  2.0124927106762272e-01  2.0567182673590936e-01  1.4463351869643868e+00  5.4549100802307027e-01  1.3011654966702111e+00  1.4927063935623781e+00  1.4692455215992839e+00  1.4332691617079791e+00  9.2159329933897582e-01  1.1157138610680424e+00  4.5793487308594960e-01  1.9469921214336444e-01  1.4767456744213396e+00  1.2224015976346623e+00  1.2924246045947889e+00  1.4091540088601489e+00  1.4044840004597254e+00  1.3990635860080338e+00  1.1789575788336295e+00  1.1335417345532544e+00  1.2871017360814061e+00  1.8381006069579697e-01  0.0000000000000000e+00  1.1423475998869006e+00  1.4922161784893759e+00  1.4960557540239863e+00  1.4473486599205978e+00  5.4629046485159183e-01  2.0592326997370972e-01  1.5128169859013909e+00  6.9886126970868379e-01  7.3102576354025106e-01  1.2967429938576880e+00  1.3456263402076090e+00  6.6133413472501912e-01  5.3454936430075217e-01  7.9957947620276415e-01  8.3602334825732572e-01  1.5016130091657138e+00  6.2283991019703999e-01  8.2140654872804830e-01  8.3229529597447161e-01  1.3747972253490226e+00  9.6715289641203062e-01  9.9079829880612313e-01  1.4128838651584750e+00  1.3649838051736072e+00  7.5203721729992090e-01  1.1877133897160577e+00  3.7538112237203902e-01  1.1267593795936428e+00  1.4639526003292374e+00  1.9644285226468319e-01  4.4289578952007397e-01  1.5106870983071625e+00  4.6792163267637438e-01  5.6825271642828690e-01  4.4794758048675981e-01  8.8336414595280055e-01  1.3384449024240030e+00  1.5133300494475517e+00  5.5190124693122344e-01  1.3925762382708504e+00  1.4379844442866554e+00  1.0917361625513555e+00  1.0831622316186538e+00  6.3345116899254950e-01  1.0391743371861377e+00  1.0327332976469308e+00  1.4191354951878961e+00  1.4492998924511724e+00  1.2597759940367095e+00  1.5125638414998304e+00  9.0241565878328711e-01  1.4887260627670185e+00  1.3926169294857249e+00  4.6945074101787326e-01  1.3308818299422045e+00  7.7860002837325426e-01  1.5022777672738981e+00  8.4258161301623313e-01  1.9383939117693499e-01  3.9805792088594893e-01  5.1902961382780688e-01  6.6924663197888457e-01  1.4871446578588856e+00  1.4597645269056998e+00  1.4802179604164527e+00  1.0151984933118314e+00  1.4058220707734672e+00  1.3644635418607374e+00  1.2404611232352831e+00  1.2761332290736680e+00  1.5068848380009325e+00  0.0000000000000000e+00  1.0878632232733449e+00  9.6028570771118127e-01  7.4074619174751433e-01  6.2068332410705307e-01  8.8263252493740674e-01  7.7267774071327000e-01  1.5120205560745750e+00  5.7515006263484392e-01  1.3292002739682143e+00  9.2976214390875467e-01  1.0081554689459777e+00  1.1689513300867145e+00  0.0000000000000000e+00  5.1256621287113224e-01  4.8621926496857404e-01  7.9596627309742540e-01  7.4062311171072071e-01  7.8886222573072062e-01  1.2691668965346283e+00  1.1792981862759329e+00  1.3681192086173930e+00  1.4094362932970956e+00  7.7605258905825680e-01  0.0000000000000000e+00  1.8482748533192356e-01  4.3343371577382767e-01  1.4933130319921522e+00  5.5285798409518316e-01  1.0603658853706002e+00  1.4686136656425088e+00  1.5031783763303008e+00  7.5842604963256022e-01  1.1253019776860866e+00  8.4065280542470666e-01  2.9343308260367318e-01  1.4339965905547007e+00  1.3480871309608040e+00  1.5075724874656844e+00  1.5125254416223382e+00  2.5590528446479777e-01  7.9715161604519713e-01  1.9354467888998242e-01  1.5135016050055166e+00  2.5051828416990768e-01  1.4171952981600811e+00  1.0322817246753333e+00  7.9589353305415778e-01  0.0000000000000000e+00  0.0000000000000000e+00  0.0000000000000000e+00  1.8276432818274760e-01  0.0000000000000000e+00  0.0000000000000000e+00  1.3650643190024594e+00  5.1303052195046273e-01  0.0000000000000000e+00  0.0000000000000000e+00  1.3648082665543886e+00  0.0000000000000000e+00  0.0000000000000000e+00  1.5072766564306248e+00  1.5070145740010352e+00  1.4597634915225446e+00  1.4597502075617035e+00  1.5072899378436424e+00  1.5074915701439089e+00  0.0000000000000000e+00  1.2223872720031461e+00  0.0000000000000000e+00  0.0000000000000000e+00  1.0320418951785824e+00  0.0000000000000000e+00  0.0000000000000000e+00  5.1252651061539989e-01  0.0000000000000000e+00  0.0000000000000000e+00  7.9580553750814875e-01  0.0000000000000000e+00  5.1263840258382032e-01  1.8379204437234128e-01  0.0000000000000000e+00  1.4599582093421111e+00  0.0000000000000000e+00  1.0324567104281859e+00  0.0000000000000000e+00  1.2222304719108850e+00  7.9568357410293444e-01  1.1143579396521908e+00  1.2585833062972158e+00  4.3444627872262903e-01  1.1340520390986586e+00  1.1159575085570912e+00  1.2835017517417255e+00  1.2827299619397543e+00  1.2088324518775813e+00  1.0528680789724807e+00  1.0281527209862413e+00  1.2579837772831541e+00  1.5854020832230595e-01  1.0858154795564467e+00  9.3282812055461251e-01  1.1950675563758277e+00  1.4598369059376384e+00  1.3755078767547739e+00  1.4216670231107955e+00  1.5062245372837741e+00  1.6009577516138868e-01  1.0204792274096428e+00  1.2058299885249582e+00  1.4952384151604923e+00  1.5132803978335991e+00  1.2816179761694646e+00  1.5057829221181411e+00  1.4883068016659258e+00  1.4361009117621639e+00  1.2721143509342188e+00  1.5072666115790816e+00  1.4260559833129509e+00  1.1162715190880359e+00  1.4762676766820200e+00  1.5017472344456286e+00  8.0502089401280441e-01  1.4651986286244587e+00  1.3991649917037103e+00  1.2530701671435098e+00  1.3688289770395334e+00  1.4830576898267736e+00  1.1653901549708527e+00  9.8606509649591478e-01  1.5077480227654902e+00  9.7436278875335769e-01  1.3342494781502574e+00  1.3710531946340163e+00  1.4963093415755522e+00  7.6267714295283351e-01  1.4749845742665633e+00  1.4986825870869469e+00  1.5089917011726057e+00  1.4898536155331006e+00  1.2315185113995368e+00  1.3271995795319047e+00  1.2308195086307241e+00  1.0842371859565907e+00  1.1331957193292352e+00  4.5619759866090370e-01  1.2918915234871600e+00  1.2288055927698578e+00  1.4045482900417190e+00  4.6178858956591495e-01  3.5227221673517622e-01  1.0883120606545216e+00  1.1833559984833166e+00  1.4058143386552699e+00  5.0422350897239054e-01  8.6430293451904927e-01  1.4001138739873487e+00  1.3606789551542484e+00  1.2907979496949782e+00  5.0143970439184482e-01  7.6537029885663788e-01  6.5081786397930097e-01  4.4066179245656772e-01  1.4797616329251277e+00  1.0459145376543997e+00  1.2479970371113742e+00  1.4204786969231979e+00  1.1071828120056899e+00  1.1674362986226128e+00  1.3324850671492883e+00  1.5218967505045022e-01  1.4993066866298550e+00  1.4797198989609213e+00  1.5121604450989075e+00  1.5039629116550142e+00  1.3828234868532365e+00  1.2865150178700218e+00  3.7914033722919138e-01  1.5103308664163775e+00  1.3210158707047448e+00  1.3998415311244548e+00  8.0176256086125319e-01  6.4184444092168647e-01  9.9452689273368267e-01  4.7296019163779379e-01  6.1357667055362175e-01  6.4374245631166993e-01  1.2460013798832330e+00  4.9959577352977297e-01  1.7265205897341362e-01  1.4775830279293203e+00  1.8343550920970811e-01  1.2656794798869748e+00  1.5111552950244616e+00  9.8647462431681976e-01  9.2148378277854237e-01  1.3210530376326146e+00  1.5014663643643422e+00  9.0498240155651899e-01  1.4747902719422057e+00  1.6421760477260436e-01  3.7600367911887400e-01  2.6380211531167608e-01  9.8661081133040052e-01  9.1136001847082515e-01  1.0285230887932564e+00  1.5279055686577436e-01  7.9360610617895799e-01  1.2033926636468582e+00  3.3985175033670362e-01  1.4560640382881087e+00  1.7726371908072142e-01  4.8842834698151771e-01  7.0658985398359686e-01  6.1051912951840981e-01  4.6371299475656830e-01  1.3713649102525187e+00  1.14732