<?xml version="1.0"?>
<VTKFile type="UnstructuredGrid"  version="0.1"  >
<UnstructuredGrid>
<Piece  NumberOfPoints="2513" NumberOfCells="4852">
<Points>
<DataArray  type="Float64"  NumberOfComponents="3"  format="ascii">-1 1 0  -1 -1 0  1 -1 0  1 1 0  0 -1 0  1 0 0  0 1 0  -1 0 0  0 0 0  -1 -0.5 0  -0.5 -1 0  -0.5 1 0  -1 0.5 0  1 -0.5 0  0.5 -1 0  1 0.5 0  0.5 1 0  0.4166666666666666 -0.4166666666666667 0  -0.4166666666666667 0.4166666666666667 0  -0.25 -0.5 0  0.5 0.25 0  -0.4861111111111112 -0.06944444444444445 0  0.0732758620689655 0.507183908045977 0  -0.625 -0.625 0  0.625 0.625 0  0.7380952380952381 -0.25 0  -0.7099116161616161 0.2105429292929293 0  -0.25 0.7380952380952381 0  0.105392156862745 -0.6348039215686275 0  0.6770833333333334 -0.6770833333333333 0  -0.6770833333333334 0.6770833333333334 0  0.3472222222222222 -0.06944444444444446 0  -0.7264957264957265 -0.3044871794871795 0  0.3141940982507127 0.7297313660835709 0  0.02049587951122483 -0.3227479397556124 0  -0.2690972222222223 0.1475694444444444 0  0.3859500089908372 -0.7274430156831472 0  -0.2228477945123298 -0.1761765495248019 0  0.2182539682539683 0.1884920634920635 0  0.75 0.375 0  -0.145442219440968 -0.7602211097204841 0  0.7088913690476191 0.0427827380952381 0  -0.75 -1 0  -1 -0.75 0  1 0.75 0  0.75 1 0  -0.7439982703698937 -0.04614153195464455 0  -0.4609235096577606 -0.3356498099556895 0  0.4063134471431929 0.4895621842856023 0  0.25 -1 0  -0.25 -1 0  -0.75 1 0  0.75 -1 0  -1 -0.25 0  -1 0.25 0  1 -0.25 0  -0.25 1 0  1 -0.75 0  -1 0.75 0  0.25 1 0  1 0.25 0  -0.4041423272138783 -0.7597141090712928 0  0.06500839607911253 0.7578103030529481 0  -0.1572801182352047 0.3838997021864289 0  -0.6528005242053915 0.4409494757946086 0  -0.4930160984848485 0.1544744318181818 0  -0.4732142857142858 0.7752976190476191 0  0.6398809523809523 -0.4538690476190476 0  0.5166054117396399 -0.2161233620965164 0  -0.002273787244753427 0.2232363985975174 0  0.1500564496765022 -0.1524955293952667 0  0.2016720420046758 -0.4410343282803009 0  -0.08495178036419618 0.6274139771124571 0  -0.8367311471133162 0.3642591720794645 0  -0.8333333333333334 -0.625 0  -0.594323836800685 -0.8231079456002283 0  -0.4466957714776065 -0.5349126855671806 0  0.8125 0.5625 0  0.78125 0.78125 0  0.5091392650016769 0.7947130883338923 0  0.125 -0.8382681931833136 0  -0.8184523809523809 -0.8184523809523809 0  -0.07781530426104531 -0.5819319697006881 0  0.5085055196703295 0.04967610411902112 0  0.2918471072074933 -0.276017202318847 0  0.5120763537765269 -0.5898771553229597 0  0.625 -0.8585349462365591 0  0.8158532234335381 -0.8158532234335381 0  -0.5198088446315396 0.5739411553684605 0  -0.8585349462365591 0.625 0  -0.8150493805516597 0.8156205699829586 0  0.8585349462365591 -0.625 0  -0.2688268348649726 0.5439331383603209 0  0.8242100426758139 -0.4436043596336612 0  0.5833756314287952 0.4479378157143976 0  0.8690476190476191 -0.125 0  -0.125 0.8690476190476191 0  -0.8692745600729823 0.125 0  0.8696725120759167 0.125 0  -0.625 0.8711516477451908 0  0.2339522463269718 0.3879558377955778 0  0.2453709502295031 0.5655822922838026 0  0.1730610651637797 0.02021709580868947 0  0.3245402594056757 -0.5644672020485209 0  -0.7291666666666666 -0.4816595441595442 0  -1 -0.375 0  -0.5811140848639904 -0.2127276307675001 0  0.673332592838314 0.2158348143233718 0  0.375 1 0  -0.5714768890989919 0.2985103444040069 0  -1 -0.125 0  -0.8453692574786325 -0.1875 0  -0.3144549134065865 -0.02408675326008025 0  -0.2898414972096258 -0.3336092734780093 0  -0.1075052092206287 -0.4224330421314983 0  -0.05043970703604117 -0.1652278959397459 0  0.6459672950297897 -0.1113415301525317 0  0.4645210271029513 0.6398480556579343 0  0.3512863754411909 0.0937979496253573 0  -0.6063160985568274 0.03891469652249891 0  -0.3428819444444445 0.8690476190476191 0  0.625 1 0  -0.1602164796159982 0.02697860906625157 0  0.04648110064133829 -0.4808416424239687 0  1 0.875 0  -0.3836102479201657 0.6484936449177356 0  -0.3776011723096096 0.263078478984336 0  -0.6024978259969829 -0.3949628096211138 0  0.125 1 0  0.2010781308272777 0.8456221018461906 0  0.2822509696388829 -0.845902544691141 0  -0.3285533674953515 -0.6289773550938936 0  0.3461306793221754 0.278777492464833 0  0.4737475672408696 -0.8508448959534423 0  0.2384632828836344 -0.7029523187242811 0  -0.004777287059791593 0.3759269695907358 0  -0.8499735021850066 -0.3912320205328522 0  0.1222536293721587 0.2963971539625205 0  -0.3769456520999688 -0.203572526805711 0  -0.2749617205755651 -0.8464290792698902 0  0.004805888512766143 -0.747174355248311 0  -0.125 -1 0  -0.06001061822252458 -0.8724007765244854 0  0.875 0.4375 0  0.854421179608893 0.271342359217786 0  0.875 1 0  -0.1499861095763589 0.2358309656934888 0  0.3381943639137225 0.8663061796405532 0  -0.7853090110442228 0.4998412775277108 0  0.7398165998560814 -0.5535192694951373 0  0.1580042122341573 -0.3100246140259917 0  -0.7291666666666667 -0.7142857142857142 0  -0.375 -1 0  0.6483368386154684 0.8514905990110488 0  -0.1295370103291928 -0.2826118305021242 0  0.07458201853700455 0.1123894386563915 0  0.6146465857036327 -0.3161203659316075 0  0.5551898493894731 -0.740296118159085 0  0.375 -1 0  0.482702798370208 -0.084133350091034 0  0.87890625 0.68359375 0  -0.05917195534525846 0.4971092425697621 0  0.1260710309213975 0.6343750312956699 0  0.8690476190476191 -0.3077066815262848 0  -0.2912010232560567 0.3668168386732139 0  -0.875 1 0  -1 0.875 0  1 -0.875 0  0.875 -1 0  -0.8689564281364567 -0.006189266075306407 0  -0.7449425635110547 0.08458938160051771 0  -0.7150266761936593 -0.1739444581417552 0  -0.5260034831318311 -0.711099823962112 0  -0.4724626808827322 -0.871722230709409 0  0.4734436795977052 0.377714794132168 0  -0.875 -1 0  -1 -0.875 0  0.6927189078571988 0.5156567235715964 0  -0.3742497615796874 -0.4296005251260107 0  -0.1969436423297711 -0.6387157229772615 0  -0.6179496409766825 -0.08933356056510935 0  -0.424405057115988 0.04452428810878029 0  -0.08479048335844169 0.1279607007132633 0  0.003830300099055113 0.8712085230656206 0  0.8748778838820267 -1.379218479898026e-05 0  -0.375 1 0  -0.625 1 0  1 0.125 0  -0.125 1 0  1 -0.375 0  1 -0.125 0  1 -0.625 0  0.625 -1 0  0.125 -1 0  -0.625 -1 0  -1 -0.625 0  -1 0.125 0  -1 0.375 0  -1 0.625 0  1 0.375 0  1 0.625 0  0.6325660748712082 0.3335187599557389 0  -0.06420945895056573 0.7549874027425891 0  -0.8769015540914771 0.2478802253893416 0  0.871875 0.871875 0  -0.6868091492840067 0.3270978624973681 0  -0.5363597469565949 0.412994850055505 0  -0.6803734992638302 0.5574295000651103 0  -0.7076253581162534 -0.8803439094224437 0  -0.8778089002295137 -0.5106896447504627 0  -0.3860184984222981 0.530566778071246 0  0.6109900617121508 0.1128453077697081 0  0.3896945134930274 -0.1915382873255086 0  0.7605656944697778 -0.06822134873122943 0  0.3576151269893478 0.5948388411612135 0  -0.5689902680792265 -0.5143596830118065 0  0.6262446286847614 -0.5735657901943212 0  0.2030558252325225 -0.5625263842513452 0  0.6123273142928579 0.7407533260723429 0  0.4016460890123554 -0.3042863223111857 0  -0.59039693199147 0.7578418819188018 0  0.7276932493917544 -0.3705808024528924 0  0.5222536818742854 -0.4713886230400014 0  -0.5101986527137737 0.8848365765607674 0  0.510560172809238 0.5356013299918891 0  -0.3603569195756083 0.75823710606415 0  0.1967279277813232 0.728226870058472 0  -0.6086880986371127 0.1545624071548516 0  -0.38105366729386 0.1511189987807864 0  -0.2944659463671584 -0.7359061804869591 0  0.5060729154966499 -0.3475227845833823 0  -0.09281616240412746 -0.06197858250969457 0  0.7649739583333334 0.6673177083333334 0  0.7628906249999999 0.890234375 0  -0.2666864184909611 0.2585504071132311 0  0.3635064892129658 0.3878003602709461 0  -0.2339409722222222 0.8901937905844155 0  -0.1718792125974916 -0.8957733325456778 0  0.1001768566329531 0.4023510017391879 0  0.3120260172693757 -0.4540546875576884 0  0.7804062804433681 0.1896628610854537 0  0.4087715451998049 0.187961780041608 0  -0.1584963477271457 0.5451611892421655 0  -0.8926817849258324 0.463022006336401 0  0.2338091473445219 -0.07576267331277289 0  0.08171112182813692 -0.2349087687359925 0  0.04635385178956847 -0.1044635073718474 0  -0.4377391632114205 -0.6448874471423088 0  -0.1907678351227189 0.6480215912813945 0  0.300605946475244 0.4741444604171038 0  -0.2145033720757486 -0.06751709909419711 0  0.6069191921170397 -0.005492331448357812 0  0.0214718770761248 0.6032397936031719 0  0.5476675683364878 0.8992752415326501 0  0.4387475014316537 0.9093708953002239 0  -0.4932997685306436 -0.4381009159993523 0  0.2515197695339056 -0.1791673369138964 0  -0.7291666666666667 -0.6088789682539681 0  -0.9166666666666667 -0.6875 0  0.620579540363709 -0.2122431523583302 0  -0.484950136419973 0.6719440339397442 0  0.2857044415400258 0.0137589173127316 0  -0.8945708364098356 -0.288306105327986 0  0.4043102720140535 0.7842914560451557 0  0.04123256238752064 -0.9026968245801402 0  0.2003676884403109 -0.9091888601740487 0  0.1068775558538842 -0.7373377130403223 0  -0.4804566783514427 -0.1763307203045643 0  0.108286342087769 -0.3993789328997278 0  -0.191883080105361 -0.3640821726430649 0  -0.07025064492006244 0.2984876656890053 0  -0.7039324641409584 0.788312126296613 0  -0.7311286585775438 0.8932502354831682 0  0.5171409396884947 0.1503852691889257 0  0.4229392823658633 -0.003216522184234835 0  -0.5621736087218259 -0.919558629836806 0  -0.626474064879544 -0.7266572613636506 0  0.2446828746617422 0.2867616783302419 0  0.1759429608742923 0.4776611759306416 0  -0.3468240303741654 -0.5260416435617549 0  -0.7465808808425306 0.4069574477998361 0  -0.7819962170660292 0.2802441065650652 0  -0.3742623214119594 -0.8547800509641984 0  0.1014498009713561 0.8506721983266377 0  0.4285217620918213 -0.5230190595570253 0  0.4091738370487775 -0.6256346204225141 0  0.78125 0.46875 0  0.90625 0.53125 0  -0.4791801348852565 0.2553992655702126 0  0.7843318610782772 -0.7086046956885941 0  0.8909728264971901 -0.7355183796514634 0  0.7041908166528879 -0.7830649143180282 0  0.7311821352
[...]
<PointData  Scalars="velocity-2"> 
<DataArray  type="Float64"  Name="velocity-2"  format="ascii">0.0000000000000000e+00  0.0000000000000000e+00  0.0000000000000000e+00  0.0000000000000000e+00  0.0000000000000000e+00  2.6481935633698592e+00  0.0000000000000000e+00  2.6476599493147202e+00  2.6523979136948075e+00  2.0764858837056268e+00  0.0000000000000000e+00  0.0000000000000000e+00  2.0745809323523337e+00  2.0793122204169947e+00  0.0000000000000000e+00  2.0758600308376542e+00  0.0000000000000000e+00  2.2916478454801723e+00  2.2817795437309565e+00  2.0721866295386673e+00  2.5096823947718621e+00  2.6417164344611463e+00  2.0502345283913996e+00  1.6343621788273310e+00  1.6291017780391110e+00  2.5157535718023665e+00  2.5585661412267546e+00  1.1756466329726512e+00  1.5968113077483785e+00  1.4292920551144559e+00  1.4265878951905471e+00  2.6389818132050986e+00  2.4474805245901305e+00  1.2176332340004199e+00  2.4288120245567608e+00  2.6016227813981585e+00  1.2229271312511247e+00  2.5835875982527767e+00  2.5766530323674277e+00  2.3504651953625935e+00  1.0847542989881218e+00  2.6438641623081094e+00  0.0000000000000000e+00  1.1305356507080435e+00  1.1339506393236323e+00  0.0000000000000000e+00  2.6408015114889456e+00  2.4127353634163020e+00  2.1077480386077823e+00  0.0000000000000000e+00  0.0000000000000000e+00  0.0000000000000000e+00  0.0000000000000000e+00  2.5189296481036569e+00  2.5153318241912008e+00  2.5172808705325327e+00  0.0000000000000000e+00  1.1304808753827340e+00  1.1296964098079469e+00  0.0000000000000000e+00  2.5171411925952913e+00  1.0863119244963850e+00  1.0995455677013097e+00  2.3453711890547568e+00  2.2350573818185349e+00  2.5978562290136593e+00  1.0239392468796200e+00  2.2000486975466673e+00  2.5494045157674310e+00  2.5464961172081191e+00  2.5982597400932121e+00  2.2343015765622605e+00  1.6210928074843785e+00  2.3693313731389583e+00  1.6330372706196552e+00  8.2171869702913614e-01  1.9605886966748025e+00  1.8608997966424292e+00  9.9846906544349523e-01  9.3908024205286744e-01  7.4831259885524659e-01  8.3998038639709582e-01  1.7922584403460990e+00  2.6398092227024352e+00  2.4896178194429952e+00  1.7629160781714182e+00  6.6378611774079477e-01  8.5379711282669402e-01  1.8212904137867405e+00  1.6323461337928897e+00  8.5123930164891826e-01  1.6331895855604315e+00  1.9321706490409640e+00  2.2264918227434469e+00  2.2164566822896683e+00  2.6130712363418929e+00  6.1246659756543531e-01  2.6143110070673257e+00  2.6135474236717839e+00  6.0513204784073737e-01  2.3323064077288929e+00  1.8515667102953821e+00  2.6496412123634308e+00  1.8545447345490238e+00  2.1235829654935903e+00  2.3538214858323241e+00  2.5540603811436777e+00  2.5500868257961979e+00  0.0000000000000000e+00  2.4576039444773783e+00  2.6136773894019858e+00  2.5758145304816842e+00  2.6428713788245490e+00  2.4100971516170664e+00  2.2688193496781399e+00  2.5994315403188941e+00  2.6230102278015477e+00  1.5741429629341093e+00  2.6345035769682394e+00  2.6434860822609654e+00  6.1346354720121876e-01  0.0000000000000000e+00  2.6452102274708977e+00  2.1342483278397775e+00  5.8974461661841782e-01  1.5417114129967859e+00  2.5003220333871150e+00  2.3216135033877108e+00  0.0000000000000000e+00  7.2167191941573638e-01  7.1511325754435096e-01  1.6120786317382731e+00  2.4837255409141585e+00  7.0059933066458080e-01  1.3203785841056277e+00  2.3539288043675355e+00  2.3323583784272746e+00  2.4709112855977238e+00  2.5670066355233963e+00  7.1449788949379112e-01  1.1399549789991859e+00  0.0000000000000000e+00  6.0109656971896497e-01  2.2441715933799369e+00  2.4916198856699445e+00  0.0000000000000000e+00  2.5337860064443434e+00  6.2991644630470645e-01  2.0755149800958743e+00  1.8980056223507002e+00  2.4461192616890006e+00  1.2792156694992569e+00  0.0000000000000000e+00  6.9083543681190684e-01  2.4786283823805180e+00  2.6245431388647558e+00  2.4440044730315451e+00  1.1710169163084527e+00  0.0000000000000000e+00  2.6361651490839151e+00  1.3965183859451096e+00  2.0897009629495868e+00  1.5961491085088657e+00  2.4413162307104228e+00  2.3640256162473245e+00  0.0000000000000000e+00  5.8936389755568297e-01  5.8996899827649874e-01  0.0000000000000000e+00  2.6477461986347719e+00  2.6329012339954874e+00  2.5817096181233401e+00  1.2902698525432261e+00  6.0516218350423456e-01  2.3448070655806577e+00  0.0000000000000000e+00  5.8777166206759879e-01  2.0281473048864225e+00  2.2578399131461215e+00  1.5752873304823483e+00  2.6341653046297124e+00  2.6405505872496566e+00  2.6083005140126185e+00  6.0309871467617215e-01  2.6457763015713316e+00  0.0000000000000000e+00  0.0000000000000000e+00  2.6153119564245881e+00  0.0000000000000000e+00  2.3530291685705462e+00  2.6157014920890518e+00  1.6309571667592573e+00  0.0000000000000000e+00  0.0000000000000000e+00  0.0000000000000000e+00  1.6307312071323941e+00  2.6132138075755549e+00  2.3529031255304584e+00  1.6294571227901580e+00  2.3570294126905056e+00  1.6291368311818557e+00  2.4075397324392371e+00  1.1116845537122979e+00  2.5147429050861150e+00  6.0408293867497920e-01  2.4243101318756262e+00  2.2918670784394992e+00  1.8875482317204184e+00  5.6453525837778429e-01  2.0410961156391787e+00  1.9766412613148738e+00  2.6250187218779835e+00  2.5712691204011904e+00  2.6376575758317307e+00  1.7447953400111083e+00  2.0301740158381136e+00  1.8244771555534309e+00  1.8649587178574394e+00  1.1713146837723016e+00  2.4512123152363463e+00  1.1005075266548370e+00  2.3589975616579770e+00  2.1618593784614402e+00  5.4389563164204691e-01  1.9538487225644883e+00  1.1001896325998972e+00  1.2207819675496203e+00  2.5930758212536626e+00  2.5935657153453864e+00  1.1887103090064424e+00  2.3959213224973994e+00  2.6381518535174795e+00  1.4686280380505254e+00  5.2128549093987187e-01  2.5074753925176871e+00  2.3340694729504055e+00  5.1486140854351947e-01  4.9724810238277173e-01  2.3053911354633758e+00  2.1973762452661063e+00  2.5725341520385023e+00  2.5762526085432449e+00  1.9221430947723779e+00  2.1798084291240305e+00  2.6348378868753168e+00  2.5338140592593605e+00  2.6292557527639571e+00  1.5544405471449774e+00  1.5441637599696061e+00  2.1486278132745902e+00  2.6425504647519511e+00  2.6443368974019466e+00  1.7167846732522229e+00  4.8052367155140685e-01  4.2916417053667300e-01  2.2465163781718211e+00  2.5871396313403006e+00  1.6936688055750559e+00  1.3880966097946881e+00  2.5526530481621390e+00  1.4477512605494496e+00  2.6492600846498440e+00  2.4712517406256103e+00  9.8776604787419775e-01  4.6323401524717223e-01  4.2921742334908763e-01  1.1838137154878334e+00  2.5842250049930513e+00  2.3134661985546989e+00  2.3760973394039131e+00  2.4601705945446612e+00  9.6722975765579777e-01  5.0360020601289446e-01  2.5973965404240293e+00  2.6465321026564315e+00  3.8280943137165963e-01  1.2269736458088714e+00  2.4721305234379258e+00  2.1415603219969861e+00  1.9919269619868052e+00  2.3051463199872129e+00  2.4819553966393308e+00  6.7572072900748015e-01  6.9501162135436345e-01  2.0093292864166492e+00  1.6258260079187428e+00  2.1653777014069360e+00  1.9714834600174578e+00  2.5096044478929689e+00  1.3029146180818798e+00  1.1869583362227212e+00  9.8486187246028467e-01  5.1552438283285684e-01  8.6345056199833636e-01  1.2823944362888597e+00  1.3043693227035724e+00  2.2135035831736092e+00  4.0269566167399873e-01  5.4740651325112333e-01  9.8412347454066751e-01  1.2506561976379209e+00  4.0986751175762332e-01  5.0873061034075773e-01  1.5408794664275216e+00  1.5272950727339798e+00  8.0942719113284711e-01  1.3931393200876865e+00  1.8073478847855162e+00  1.9131765028250185e+00  1.7497746744921030e+00  2.5854336728007272e+00  2.5611600544033499e+00  2.6277583747208979e+00  2.2031760722517033e+00  1.8979017349208289e+00  3.4143765641204832e-01  1.9972279397336368e+00  2.3232297278332608e+00  1.0113438183825176e+00  1.6665908398540690e+00  2.1023557711601337e+00  2.0218073859607704e+00  2.3828786534264523e+00  2.4800352092064291e+00  2.6399512624567016e+00  1.5002371235914234e+00  2.6294746161825246e+00  1.0236607722308904e+00  1.3589945209464711e+00  2.6156909554673566e+00  2.4593533205772986e+00  2.1822172126639687e+00  3.2830005860383460e-01  2.5908073439315729e+00  2.6306437465584578e+00  2.5505004998468586e+00  2.2427063902268087e+00  2.6468375655629863e+00  2.2783689341432676e+00  1.9514277496386891e+00  1.5136478007699898e+00  3.1434682464822417e-01  2.5908792851072082e+00  2.6364878572424839e+00  2.6387573440606222e+00  2.5731270011312297e+00  2.6060251789142486e+00  3.2164565670856926e-01  1.3120666710043911e+00  3.2018883937749032e-01  2.4431550386963861e+00  3.1515792544249871e-01  1.5543081428561880e+00  2.6367603464165099e+00  3.0495866928796089e-01  2.3292259331011604e+00  1.9280714296730088e+00  1.9286408167713800e+00  8.5971791501721206e-01  2.4410063762498866e+00  2.6377365689602192e+00  2.6356206480099442e+00  2.6422638929310356e+00  3.0031644153394854e-01  3.8406887274752988e-01  3.1645755494905237e-01  2.6097216556967431e+00  2.5509949382430039e+00  1.9323394632214770e+00  1.0196285529728135e+00  3.0277955413715629e-01  1.4224912386171580e+00  2.3663470294005475e+00  1.3694738976123082e+00  2.6516464136805493e+00  2.5760384659486388e+00  9.4387911100523880e-01  1.2005937439824892e+00  2.6454485799651213e+00  2.6174592272191934e+00  2.3943010034489318e+00  2.5273131775329123e+00  3.1350597394669810e-01  2.5059868545445525e+00  2.2742317191929087e+00  2.3980122612741948e+00  2.4929912990997281e+00  2.3258513913738756e+00  2.6212697843172266e+00  2.5287715496233716e+00  1.4860328119647042e+00  9.3856653841640181e-01  2.4939239773494282e+00  2.5359919859208997e+00  1.7670503063358340e+00  2.3796411675985638e+00  1.7553977800652467e+00  2.5549063608976890e+00  2.5984278313397566e+00  2.5763813509872371e+00  2.4244399515423476e+00  2.6447575006190300e+00  1.3414942337117755e+00  4.7720828601891208e-01  2.4213486660719283e+00  6.9376835983282170e-01  2.4202795004073132e+00  2.0901733452479956e+00  2.3005989300234173e+00  2.4023453220712518e+00  1.9019131151579551e+00  2.5513907800930418e+00  2.5078309851169567e+00  2.3653504772517167e+00  2.1692050560614606e+00  2.6149321991244983e+00  0.0000000000000000e+00  2.6362867824340332e+00  2.6327815796250849e+00  2.2204734115255542e+00  2.1993250720713498e+00  9.8603779263669422e-01  2.6515351049515856e+00  2.6281032812480576e+00  1.5937782512437311e+00  2.1717511266868090e+00  2.4230832649188785e+00  1.6772720438042004e+00  1.8584517133565450e+00  0.0000000000000000e+00  2.5167311021708239e+00  3.0400907253978310e-01  8.9933562603660733e-01  2.6150217215238376e+00  7.9179754003119229e-01  3.8484807315687897e-01  1.5931042855697579e+00  2.3049729593698851e+00  2.3904728347491777e+00  3.4633631663396719e-01  1.8974061131443987e+00  8.0236816598443561e-01  1.0381636810385548e+00  2.3366520249495135e+00  2.5559967683644538e+00  1.0386403007894516e+00  2.5569789713482614e+00  2.9978238891270059e-01  2.5056771958891102e+00  2.3997290297459006e+00  1.0000690924447269e+00  1.7120931287841756e+00  1.4785964419113387e+00  2.6136995436050134e+00  9.6831763663467085e-01  1.0097377050958489e+00  1.7026699874243647e+00  0.0000000000000000e+00  2.4392477116082603e+00  0.0000000000000000e+00  1.7767298881127864e+00  2.3087779355162463e+00  2.3753946469798271e+00  2.0255424504695605e+00  2.6453869267880119e+00  2.6215678392578741e+00  2.5488644101477047e+00  2.2295056526196109e+00  2.4605270829990435e+00  0.0000000000000000e+00  3.4865518369493503e-01  1.6293563383814984e+00  2.9890127884540429e-01  1.2661849940815548e+00  2.1734976147711622e+00  6.8057144243567791e-01  1.8465172262336242e+00  1.3783665422901641e+00  1.0857897402974657e+00  5.2716923237464852e-01  0.0000000000000000e+00  7.9173407642958937e-01  8.0213170298501746e-01  8.5704272745109300e-01  2.6460534564825431e+00  0.0000000000000000e+00  1.7722504057829755e+00  1.3963066552835064e+00  2.6407972266892159e+00  2.4388205370095806e+00  2.5713142341345772e+00  2.5434774568173064e+00  2.4405547825699312e+00  2.5648956272848484e+00  2.6454734019142725e+00  1.1793406497880927e+00  1.9971070166850595e+00  1.4920683960004493e+00  2.0488452256401151e+00  2.6258052085641861e+00  2.6280790757919381e+00  0.0000000000000000e+00  1.7647607410209876e+00  3.4192056353988931e-01  4.2200967163090242e-01  2.1550779768025219e+00  2.2474144573370118e+00  2.5263410540548619e+00  3.9501666667784002e-01  1.2827847729488908e+00  2.5827660994511117e+00  2.3738346198748319e+00  2.5220157555762643e+00  2.1616900607636955e+00  2.5923527672560835e+00  2.6322412584643637e+00  2.2389172636049985e+00  3.0457550797677607e-01  3.3077236920289327e-01  3.3819271081982599e-01  2.5544128955272902e+00  9.2031575089151008e-01  2.3528496260214165e+00  2.6207038672311076e+00  2.5920831403921478e+00  2.5395923141384036e+00  1.6349863938786764e+00  2.0389815106778162e+00  7.7137499030006118e-01  3.2392315819588657e-01  2.5959638758416812e+00  2.2452209807701093e+00  2.3456398411338935e+00  2.5066494479468111e+00  2.5011423104813111e+00  2.4848979571333616e+00  2.1633448898566536e+00  2.0759144419980209e+00  2.3387582891311856e+00  3.0064052754455728e-01  0.0000000000000000e+00  2.0896255447135492e+00  2.6205724710086851e+00  2.6221675463586296e+00  2.5624880725990256e+00  9.2987583821337216e-01  3.3632783805509325e-01  2.6505372063407973e+00  1.2004642089386521e+00  1.2613324416253198e+00  2.3516203900938222e+00  2.4189244147181439e+00  1.1351145159630793e+00  9.0407049967732300e-01  1.3953788315906539e+00  1.4641021925821640e+00  2.6394229178750597e+00  1.0608144900427765e+00  1.4366277892129480e+00  1.4566462628348169e+00  2.4552164516744832e+00  1.7297800132529644e+00  1.7755748083033682e+00  2.5104613718890860e+00  2.4412395138612211e+00  1.3037624999679385e+00  2.1816961093516780e+00  6.2250016565362143e-01  2.0645170319145119e+00  2.5839509270105410e+00  3.2433321014075511e-01  7.4016575357347580e-01  2.6424064564916083e+00  7.8277472182311247e-01  9.6796610129592731e-01  7.5147390093566213e-01  1.5532360404680692e+00  2.4080567605871752e+00  2.6519466554324556e+00  9.3890995941952748e-01  2.4804813822686582e+00  2.5431256597429193e+00  1.9896997179042173e+00  1.9733937684155545e+00  1.0844198787118364e+00  1.8798257449816418e+00  1.8673722637897665e+00  2.5229211910337588e+00  2.5613191109417071e+00  2.2984392613347371e+00  2.6490400562478937e+00  1.5966981772808151e+00  2.6132700044361843e+00  2.4799188557618255e+00  7.8534770152989064e-01  2.3978466928579580e+00  1.3590258575241374e+00  2.6347462451714181e+00  1.4796298286621927e+00  3.1923411881738650e-01  6.6798490927836296e-01  8.7519092709283053e-01  1.1481303440087667e+00  2.6118391498414222e+00  2.5741964988439539e+00  2.6024003228166324e+00  1.8278227099875846e+00  2.4997086622577722e+00  2.4355649804833734e+00  2.2719382840947056e+00  2.3214941109503613e+00  2.6438184330409307e+00  0.0000000000000000e+00  1.9835526981671121e+00  1.7150687178933512e+00  1.2831225426892432e+00  1.0555374467221847e+00  1.5541063466907761e+00  1.3418525564271617e+00  2.6402796747772448e+00  9.8186541545351291e-01  2.3905464248719781e+00  1.6503778095328976e+00  1.8110360204341616e+00  2.1498693140495848e+00  0.0000000000000000e+00  8.6468973114327419e-01  8.1778534936830216e-01  1.3873605164056257e+00  1.2858398392092447e+00  1.3720102217863515e+00  2.3211881135249390e+00  2.1665454954616177e+00  2.4425387074494274e+00  2.5049740327872438e+00  1.3498991206367157e+00  0.0000000000000000e+00  3.0436155448521141e-01  7.2884240368229414e-01  2.6206218248544624e+00  9.3894792122955606e-01  1.9176902579493729e+00  2.5802724323672397e+00  2.6385585999928463e+00  1.3191851075465306e+00  2.0608529699296998e+00  1.4757061804329392e+00  4.8637192368290955e-01  2.5453776261342451e+00  2.4143000062354583e+00  2.6380918258252657e+00  2.6474286787661514e+00  4.2593011152060894e-01  1.3897395699253223e+00  3.2014797110121285e-01  2.6527331609123626e+00  4.1398925237809153e-01  2.5155561000524442e+00  1.8642998502261199e+00  1.3873411952109516e+00  0.0000000000000000e+00  0.0000000000000000e+00  0.0000000000000000e+00  3.0074628028254718e-01  0.0000000000000000e+00  0.0000000000000000e+00  2.4415939197458871e+00  8.6465024408224722e-01  0.0000000000000000e+00  0.0000000000000000e+00  2.4399395723106512e+00  0.0000000000000000e+00  0.0000000000000000e+00  2.6408477920500091e+00  2.6396402754722388e+00  2.5746823988918504e+00  2.5729952329515786e+00  2.6420149688490802e+00  2.6421051792712689e+00  0.0000000000000000e+00  2.2457042751425864e+00  0.0000000000000000e+00  0.0000000000000000e+00  1.8632485083378325e+00  0.0000000000000000e+00  0.0000000000000000e+00  8.6577988543985407e-01  0.0000000000000000e+00  0.0000000000000000e+00  1.3871118316197906e+00  0.0000000000000000e+00  8.6502492874330617e-01  3.0000230771132480e-01  0.0000000000000000e+00  2.5756997999907694e+00  0.0000000000000000e+00  1.8652167760318956e+00  0.0000000000000000e+00  2.2410879984043253e+00  1.3837718320992667e+00  2.0420809674862621e+00  2.2923354211173419e+00  7.2777513530781346e-01  2.0777758405807325e+00  2.0411844019740655e+00  2.3303096131681795e+00  2.3275855201612701e+00  2.2203671394883657e+00  1.9073854846684246e+00  1.8550590753545302e+00  2.2997724627714775e+00  2.5830483975296409e-01  1.9756162965949400e+00  1.6594366758678745e+00  2.1912916385365038e+00  2.5756511782333620e+00  2.4582134112602185e+00  2.5233483793361797e+00  2.6404150007031810e+00  2.6395303421964589e-01  1.8416331903535681e+00  2.2099169108513768e+00  2.6236749153149415e+00  2.6477628132209294e+00  2.3296189311980400e+00  2.6411897559586910e+00  2.6171210074356788e+00  2.5379498018163971e+00  2.3192046499525314e+00  2.6316059085224812e+00  2.5297189609274691e+00  2.0424157127243832e+00  2.6007053032344607e+00  2.6348040274863718e+00  1.4044773598636406e+00  2.5820880583297057e+00  2.4928687720144418e+00  2.2872232873239668e+00  2.4480562029968165e+00  2.6099194450939365e+00  2.1378580528819056e+00  1.7669379494238215e+00  2.6448678025631693e+00  1.7440917844251891e+00  2.3963469578988268e+00  2.4495980267138000e+00  2.6336148384016003e+00  1.3253710185724161e+00  2.5935527663158879e+00  2.6286853236009318e+00  2.6401075516354671e+00  2.6185805795138823e+00  2.2571576930749959e+00  2.3940344827437832e+00  2.2559601436131729e+00  1.9753080871267321e+00  2.0740546839067231e+00  7.7032850276436116e-01  2.3480786486270842e+00  2.2535042769218663e+00  2.4952870126946802e+00  7.7447985676640907e-01  5.8524526794490317e-01  1.9851557203630601e+00  2.1762400808256142e+00  2.4968511113909946e+00  8.5001519165849815e-01  1.5170373764611775e+00  2.4871459089755343e+00  2.4378828479687753e+00  2.3455333236971918e+00  8.4462377408715361e-01  1.3265850247279178e+00  1.1178526623694747e+00  7.4366086400173825e-01  2.5986593032226444e+00  1.8932916281649330e+00  2.2868571885718980e+00  2.5205303250637372e+00  2.0274180656038072e+00  2.1465341109882883e+00  2.3985514097049077e+00  2.4846180922351430e-01  2.6304522704839113e+00  2.6006659977015794e+00  2.6466267175658085e+00  2.6350157651898409e+00  2.4648940581092993e+00  2.3349997171796892e+00  6.2897651784405662e-01  2.6464511932468642e+00  2.3824106983107969e+00  2.4884209282474199e+00  1.3959169467419232e+00  1.1028474063023450e+00  1.7859725594344815e+00  7.9501568980440562e-01  1.0452336127191917e+00  1.1008008567757606e+00  2.2770436397330291e+00  8.4428379691704114e-01  2.8304799777079825e-01  2.6024001434787629e+00  3.0242830082229588e-01  2.3087500611383382e+00  2.6453006543731283e+00  1.7672572813717378e+00  1.6309255883089604e+00  2.3846049314408018e+00  2.6274690576862914e+00  1.6021772993863643e+00  2.5961484466675704e+00  2.6767331305647701e-01  6.2454103907532921e-01  4.3666806047158491e-01  1.7653179235728433e+00  1.6149356124541647e+00  1.8613431259881439e+00  2.5016008419783037e-01  1.3824484449352161e+00  2.2144704613361532e+00  5.6520396843816245e-01  2.5737779910338916e+00  2.8963781690331242e-01  8.2595915881637216e-01  1.2148043556837655e+00  1.0383937631127340e+00  7.7986678033477863e-01  2.4535937884232455e+00  2.10172