<?xml version="1.0"?>
<VTKFile type="UnstructuredGrid"  version="0.1"  >
<UnstructuredGrid>
<Piece  NumberOfPoints="2513" NumberOfCells="4852">
<Points>
<DataArray  type="Float64"  NumberOfComponents="3"  format="ascii">-1 1 0  -1 -1 0  1 -1 0  1 1 0  0 -1 0  1 0 0  0 1 0  -1 0 0  0 0 0  -1 -0.5 0  -0.5 -1 0  -0.5 1 0  -1 0.5 0  1 -0.5 0  0.5 -1 0  1 0.5 0  0.5 1 0  0.4166666666666666 -0.4166666666666667 0  -0.4166666666666667 0.4166666666666667 0  -0.25 -0.5 0  0.5 0.25 0  -0.4861111111111112 -0.06944444444444445 0  0.0732758620689655 0.507183908045977 0  -0.625 -0.625 0  0.625 0.625 0  0.7380952380952381 -0.25 0  -0.7099116161616161 0.2105429292929293 0  -0.25 0.7380952380952381 0  0.105392156862745 -0.6348039215686275 0  0.6770833333333334 -0.6770833333333333 0  -0.6770833333333334 0.6770833333333334 0  0.3472222222222222 -0.06944444444444446 0  -0.7264957264957265 -0.3044871794871795 0  0.3141940982507127 0.7297313660835709 0  0.02049587951122483 -0.3227479397556124 0  -0.2690972222222223 0.1475694444444444 0  0.3859500089908372 -0.7274430156831472 0  -0.2228477945123298 -0.1761765495248019 0  0.2182539682539683 0.1884920634920635 0  0.75 0.375 0  -0.145442219440968 -0.7602211097204841 0  0.7088913690476191 0.0427827380952381 0  -0.75 -1 0  -1 -0.75 0  1 0.75 0  0.75 1 0  -0.7439982703698937 -0.04614153195464455 0  -0.4609235096577606 -0.3356498099556895 0  0.4063134471431929 0.4895621842856023 0  0.25 -1 0  -0.25 -1 0  -0.75 1 0  0.75 -1 0  -1 -0.25 0  -1 0.25 0  1 -0.25 0  -0.25 1 0  1 -0.75 0  -1 0.75 0  0.25 1 0  1 0.25 0  -0.4041423272138783 -0.7597141090712928 0  0.06500839607911253 0.7578103030529481 0  -0.1572801182352047 0.3838997021864289 0  -0.6528005242053915 0.4409494757946086 0  -0.4930160984848485 0.1544744318181818 0  -0.4732142857142858 0.7752976190476191 0  0.6398809523809523 -0.4538690476190476 0  0.5166054117396399 -0.2161233620965164 0  -0.002273787244753427 0.2232363985975174 0  0.1500564496765022 -0.1524955293952667 0  0.2016720420046758 -0.4410343282803009 0  -0.08495178036419618 0.6274139771124571 0  -0.8367311471133162 0.3642591720794645 0  -0.8333333333333334 -0.625 0  -0.594323836800685 -0.8231079456002283 0  -0.4466957714776065 -0.5349126855671806 0  0.8125 0.5625 0  0.78125 0.78125 0  0.5091392650016769 0.7947130883338923 0  0.125 -0.8382681931833136 0  -0.8184523809523809 -0.8184523809523809 0  -0.07781530426104531 -0.5819319697006881 0  0.5085055196703295 0.04967610411902112 0  0.2918471072074933 -0.276017202318847 0  0.5120763537765269 -0.5898771553229597 0  0.625 -0.8585349462365591 0  0.8158532234335381 -0.8158532234335381 0  -0.5198088446315396 0.5739411553684605 0  -0.8585349462365591 0.625 0  -0.8150493805516597 0.8156205699829586 0  0.8585349462365591 -0.625 0  -0.2688268348649726 0.5439331383603209 0  0.8242100426758139 -0.4436043596336612 0  0.5833756314287952 0.4479378157143976 0  0.8690476190476191 -0.125 0  -0.125 0.8690476190476191 0  -0.8692745600729823 0.125 0  0.8696725120759167 0.125 0  -0.625 0.8711516477451908 0  0.2339522463269718 0.3879558377955778 0  0.2453709502295031 0.5655822922838026 0  0.1730610651637797 0.02021709580868947 0  0.3245402594056757 -0.5644672020485209 0  -0.7291666666666666 -0.4816595441595442 0  -1 -0.375 0  -0.5811140848639904 -0.2127276307675001 0  0.673332592838314 0.2158348143233718 0  0.375 1 0  -0.5714768890989919 0.2985103444040069 0  -1 -0.125 0  -0.8453692574786325 -0.1875 0  -0.3144549134065865 -0.02408675326008025 0  -0.2898414972096258 -0.3336092734780093 0  -0.1075052092206287 -0.4224330421314983 0  -0.05043970703604117 -0.1652278959397459 0  0.6459672950297897 -0.1113415301525317 0  0.4645210271029513 0.6398480556579343 0  0.3512863754411909 0.0937979496253573 0  -0.6063160985568274 0.03891469652249891 0  -0.3428819444444445 0.8690476190476191 0  0.625 1 0  -0.1602164796159982 0.02697860906625157 0  0.04648110064133829 -0.4808416424239687 0  1 0.875 0  -0.3836102479201657 0.6484936449177356 0  -0.3776011723096096 0.263078478984336 0  -0.6024978259969829 -0.3949628096211138 0  0.125 1 0  0.2010781308272777 0.8456221018461906 0  0.2822509696388829 -0.845902544691141 0  -0.3285533674953515 -0.6289773550938936 0  0.3461306793221754 0.278777492464833 0  0.4737475672408696 -0.8508448959534423 0  0.2384632828836344 -0.7029523187242811 0  -0.004777287059791593 0.3759269695907358 0  -0.8499735021850066 -0.3912320205328522 0  0.1222536293721587 0.2963971539625205 0  -0.3769456520999688 -0.203572526805711 0  -0.2749617205755651 -0.8464290792698902 0  0.004805888512766143 -0.747174355248311 0  -0.125 -1 0  -0.06001061822252458 -0.8724007765244854 0  0.875 0.4375 0  0.854421179608893 0.271342359217786 0  0.875 1 0  -0.1499861095763589 0.2358309656934888 0  0.3381943639137225 0.8663061796405532 0  -0.7853090110442228 0.4998412775277108 0  0.7398165998560814 -0.5535192694951373 0  0.1580042122341573 -0.3100246140259917 0  -0.7291666666666667 -0.7142857142857142 0  -0.375 -1 0  0.6483368386154684 0.8514905990110488 0  -0.1295370103291928 -0.2826118305021242 0  0.07458201853700455 0.1123894386563915 0  0.6146465857036327 -0.3161203659316075 0  0.5551898493894731 -0.740296118159085 0  0.375 -1 0  0.482702798370208 -0.084133350091034 0  0.87890625 0.68359375 0  -0.05917195534525846 0.4971092425697621 0  0.1260710309213975 0.6343750312956699 0  0.8690476190476191 -0.3077066815262848 0  -0.2912010232560567 0.3668168386732139 0  -0.875 1 0  -1 0.875 0  1 -0.875 0  0.875 -1 0  -0.8689564281364567 -0.006189266075306407 0  -0.7449425635110547 0.08458938160051771 0  -0.7150266761936593 -0.1739444581417552 0  -0.5260034831318311 -0.711099823962112 0  -0.4724626808827322 -0.871722230709409 0  0.4734436795977052 0.377714794132168 0  -0.875 -1 0  -1 -0.875 0  0.6927189078571988 0.5156567235715964 0  -0.3742497615796874 -0.4296005251260107 0  -0.1969436423297711 -0.6387157229772615 0  -0.6179496409766825 -0.08933356056510935 0  -0.424405057115988 0.04452428810878029 0  -0.08479048335844169 0.1279607007132633 0  0.003830300099055113 0.8712085230656206 0  0.8748778838820267 -1.379218479898026e-05 0  -0.375 1 0  -0.625 1 0  1 0.125 0  -0.125 1 0  1 -0.375 0  1 -0.125 0  1 -0.625 0  0.625 -1 0  0.125 -1 0  -0.625 -1 0  -1 -0.625 0  -1 0.125 0  -1 0.375 0  -1 0.625 0  1 0.375 0  1 0.625 0  0.6325660748712082 0.3335187599557389 0  -0.06420945895056573 0.7549874027425891 0  -0.8769015540914771 0.2478802253893416 0  0.871875 0.871875 0  -0.6868091492840067 0.3270978624973681 0  -0.5363597469565949 0.412994850055505 0  -0.6803734992638302 0.5574295000651103 0  -0.7076253581162534 -0.8803439094224437 0  -0.8778089002295137 -0.5106896447504627 0  -0.3860184984222981 0.530566778071246 0  0.6109900617121508 0.1128453077697081 0  0.3896945134930274 -0.1915382873255086 0  0.7605656944697778 -0.06822134873122943 0  0.3576151269893478 0.5948388411612135 0  -0.5689902680792265 -0.5143596830118065 0  0.6262446286847614 -0.5735657901943212 0  0.2030558252325225 -0.5625263842513452 0  0.6123273142928579 0.7407533260723429 0  0.4016460890123554 -0.3042863223111857 0  -0.59039693199147 0.7578418819188018 0  0.7276932493917544 -0.3705808024528924 0  0.5222536818742854 -0.4713886230400014 0  -0.5101986527137737 0.8848365765607674 0  0.510560172809238 0.5356013299918891 0  -0.3603569195756083 0.75823710606415 0  0.1967279277813232 0.728226870058472 0  -0.6086880986371127 0.1545624071548516 0  -0.38105366729386 0.1511189987807864 0  -0.2944659463671584 -0.7359061804869591 0  0.5060729154966499 -0.3475227845833823 0  -0.09281616240412746 -0.06197858250969457 0  0.7649739583333334 0.6673177083333334 0  0.7628906249999999 0.890234375 0  -0.2666864184909611 0.2585504071132311 0  0.3635064892129658 0.3878003602709461 0  -0.2339409722222222 0.8901937905844155 0  -0.1718792125974916 -0.8957733325456778 0  0.1001768566329531 0.4023510017391879 0  0.3120260172693757 -0.4540546875576884 0  0.7804062804433681 0.1896628610854537 0  0.4087715451998049 0.187961780041608 0  -0.1584963477271457 0.5451611892421655 0  -0.8926817849258324 0.463022006336401 0  0.2338091473445219 -0.07576267331277289 0  0.08171112182813692 -0.2349087687359925 0  0.04635385178956847 -0.1044635073718474 0  -0.4377391632114205 -0.6448874471423088 0  -0.1907678351227189 0.6480215912813945 0  0.300605946475244 0.4741444604171038 0  -0.2145033720757486 -0.06751709909419711 0  0.6069191921170397 -0.005492331448357812 0  0.0214718770761248 0.6032397936031719 0  0.5476675683364878 0.8992752415326501 0  0.4387475014316537 0.9093708953002239 0  -0.4932997685306436 -0.4381009159993523 0  0.2515197695339056 -0.1791673369138964 0  -0.7291666666666667 -0.6088789682539681 0  -0.9166666666666667 -0.6875 0  0.620579540363709 -0.2122431523583302 0  -0.484950136419973 0.6719440339397442 0  0.2857044415400258 0.0137589173127316 0  -0.8945708364098356 -0.288306105327986 0  0.4043102720140535 0.7842914560451557 0  0.04123256238752064 -0.9026968245801402 0  0.2003676884403109 -0.9091888601740487 0  0.1068775558538842 -0.7373377130403223 0  -0.4804566783514427 -0.1763307203045643 0  0.108286342087769 -0.3993789328997278 0  -0.191883080105361 -0.3640821726430649 0  -0.07025064492006244 0.2984876656890053 0  -0.7039324641409584 0.788312126296613 0  -0.7311286585775438 0.8932502354831682 0  0.5171409396884947 0.1503852691889257 0  0.4229392823658633 -0.003216522184234835 0  -0.5621736087218259 -0.919558629836806 0  -0.626474064879544 -0.7266572613636506 0  0.2446828746617422 0.2867616783302419 0  0.1759429608742923 0.4776611759306416 0  -0.3468240303741654 -0.5260416435617549 0  -0.7465808808425306 0.4069574477998361 0  -0.7819962170660292 0.2802441065650652 0  -0.3742623214119594 -0.8547800509641984 0  0.1014498009713561 0.8506721983266377 0  0.4285217620918213 -0.5230190595570253 0  0.4091738370487775 -0.6256346204225141 0  0.78125 0.46875 0  0.90625 0.53125 0  -0.4791801348852565 0.2553992655702126 0  0.7843318610782772 -0.7086046956885941 0  0.8909728264971901 -0.7355183796514634 0  0.7041908166528879 -0.7830649143180282 0  0.7311821352
[...]
<PointData  Scalars="velocity-2"> 
<DataArray  type="Float64"  Name="velocity-2"  format="ascii">0.0000000000000000e+00  0.0000000000000000e+00  0.0000000000000000e+00  0.0000000000000000e+00  0.0000000000000000e+00  1.0257350369468552e+00  0.0000000000000000e+00  1.0254775252814294e+00  1.0262519354801964e+00  8.9276244177249742e-01  0.0000000000000000e+00  0.0000000000000000e+00  8.9237241097221454e-01  8.9255080301728784e-01  0.0000000000000000e+00  8.9248213631427153e-01  0.0000000000000000e+00  9.6371662548567549e-01  9.6258589131042449e-01  8.9594789780000317e-01  1.0353170844124611e+00  1.0291409383131529e+00  8.8486014654191991e-01  7.4282430025201263e-01  7.4451956095778205e-01  1.0368815066605472e+00  1.0383745474134609e+00  5.6435249639548501e-01  7.2841349790760179e-01  6.6696469925560120e-01  6.6665788974195361e-01  1.0303857104738006e+00  1.0227700118601435e+00  5.7951417067305866e-01  1.0151881921231289e+00  1.0362598374200318e+00  5.8222603975190390e-01  1.0386495836702958e+00  1.0371116930599851e+00  9.8920963415114915e-01  5.2624418621227731e-01  1.0278376472531356e+00  0.0000000000000000e+00  5.4469778567120331e-01  5.4526533527247545e-01  0.0000000000000000e+00  1.0270415799134274e+00  1.0094335026281132e+00  9.0215203636477459e-01  0.0000000000000000e+00  0.0000000000000000e+00  0.0000000000000000e+00  0.0000000000000000e+00  1.0352919097336812e+00  1.0359840694475648e+00  1.0350811434529590e+00  0.0000000000000000e+00  5.4487460359727447e-01  5.4441057185547748e-01  0.0000000000000000e+00  1.0357970555844855e+00  5.2944187359567840e-01  5.3005503986586866e-01  9.8670254782339151e-01  9.4524485516534718e-01  1.0370509533271186e+00  4.9819114368534673e-01  9.3185310353273532e-01  1.0396639212210561e+00  1.0376830005200006e+00  1.0369882741336511e+00  9.4350190427834146e-01  7.3828956680823898e-01  9.9747349596617352e-01  7.4412855638161901e-01  4.0543327854649985e-01  8.5720279368081176e-01  8.2501159623474130e-01  4.8799272735061605e-01  4.6121184875695581e-01  3.7382791589547210e-01  4.1474061615980690e-01  8.0209515089784211e-01  1.0295024124494185e+00  1.0302735169009856e+00  7.9058624236985064e-01  3.3374817349046226e-01  4.2069090517596408e-01  8.0885401235848353e-01  7.4390341829486950e-01  4.2159730647705074e-01  7.4421572568513716e-01  8.4528474217870597e-01  9.4375032577419060e-01  9.3792470037724074e-01  1.0365730186551447e+00  3.0787315271478460e-01  1.0345706367964769e+00  1.0351083896054076e+00  3.0491573119909260e-01  9.8125437569151164e-01  8.2003885533005383e-01  1.0251806319568089e+00  8.2142767604161115e-01  9.1067791715456903e-01  9.9037501921801796e-01  1.0394404080392941e+00  1.0394332963852941e+00  0.0000000000000000e+00  1.0238637547212184e+00  1.0356620931837133e+00  1.0383579790482655e+00  1.0281262661268569e+00  1.0105899828450280e+00  9.5992335998319556e-01  1.0371049464751334e+00  1.0327826890583591e+00  7.2223659361974812e-01  1.0304826369429945e+00  1.0279486619841467e+00  3.1013470899771406e-01  0.0000000000000000e+00  1.0234590580836420e+00  9.1068143293460468e-01  2.9660542580648230e-01  7.0835088066832319e-01  1.0337580918436104e+00  9.7922746626308699e-01  0.0000000000000000e+00  3.5999120716512928e-01  3.5694315912365043e-01  7.4103708237922616e-01  1.0285626890526327e+00  3.4803826536384680e-01  6.2172133545036390e-01  9.8939402997675374e-01  9.7931777731666814e-01  1.0247151837185957e+00  1.0371287456322789e+00  3.5735704320515288e-01  5.4915857098431065e-01  0.0000000000000000e+00  3.0199136423552564e-01  9.4899074764698588e-01  1.0295460003299035e+00  0.0000000000000000e+00  1.0373164835022479e+00  3.1629251126698071e-01  8.9310905345706249e-01  8.3534886787408491e-01  1.0208374522767150e+00  6.0531124797720981e-01  0.0000000000000000e+00  3.4740023708780460e-01  1.0289078847958106e+00  1.0325829145436891e+00  1.0188983380261010e+00  5.6165826337168145e-01  0.0000000000000000e+00  1.0306909721071968e+00  6.5702732900088312e-01  8.9600166862241504e-01  7.2837064210716818e-01  1.0217713759313181e+00  9.9451877299334979e-01  0.0000000000000000e+00  2.9676520906919651e-01  2.9659279075660455e-01  0.0000000000000000e+00  1.0267261384239186e+00  1.0314015534869976e+00  1.0385269561846118e+00  6.1178027878542918e-01  3.0551983304086167e-01  9.8901246875796500e-01  0.0000000000000000e+00  2.9664903216234534e-01  8.7715750621133071e-01  9.5488466569714303e-01  7.2542332649817953e-01  1.0335147425829985e+00  1.0282245962538858e+00  1.0352243925156408e+00  3.0438278215981551e-01  1.0275785691946557e+00  0.0000000000000000e+00  0.0000000000000000e+00  1.0350535437544905e+00  0.0000000000000000e+00  9.9095296889794826e-01  1.0346591516531429e+00  7.4357933844056556e-01  0.0000000000000000e+00  0.0000000000000000e+00  0.0000000000000000e+00  7.4455299504978445e-01  1.0346472515620182e+00  9.9009115101552192e-01  7.4429082798092283e-01  9.9095485655521853e-01  7.4462816367816564e-01  1.0098258935898328e+00  5.3629437607618047e-01  1.0365592055072095e+00  3.0257281571653022e-01  1.0150747680752510e+00  9.6612346789702241e-01  8.3011653708486910e-01  2.8504462264094294e-01  8.8214920099212735e-01  8.6248973725915357e-01  1.0347427360034598e+00  1.0404640673534484e+00  1.0265203191280261e+00  7.8316385736745686e-01  8.7751629621476157e-01  8.1032821019800638e-01  8.2414780501266571e-01  5.6095300854747976e-01  1.0212821733288937e+00  5.3109176606589070e-01  9.9217490793108287e-01  9.1950131790198464e-01  2.7553621739787226e-01  8.5450960554411393e-01  5.2892152667345194e-01  5.8289869418610685e-01  1.0378799727443069e+00  1.0370059519284114e+00  5.6807745446222579e-01  1.0059408481523742e+00  1.0268093753890917e+00  6.8156138936678123e-01  2.6281563675798741e-01  1.0343227880409003e+00  9.8075815737981664e-01  2.6363789414407168e-01  2.5135462928542318e-01  9.7348863708339595e-01  9.3551231309363136e-01  1.0390930454530938e+00  1.0396062090319602e+00  8.4514738394642897e-01  9.2734192454893394e-01  1.0299133042501265e+00  1.0364545400394205e+00  1.0320659990033823e+00  7.1800744933137894e-01  7.1058159755868944e-01  9.1711432229138523e-01  1.0310279348606004e+00  1.0245642586830861e+00  7.7382176041506756e-01  2.4308295518721454e-01  2.1910858563311242e-01  9.4844697003968725e-01  1.0387945680198072e+00  7.6722620736525360e-01  6.4970944625380611e-01  1.0412479994895825e+00  6.7572413493229089e-01  1.0263828206246643e+00  1.0264924495365850e+00  4.8141372966961893e-01  2.3375922713781885e-01  2.1982190624472236e-01  5.6730777489175244e-01  1.0403152358026440e+00  9.7285734714129346e-01  9.9355153294000531e-01  1.0241836405097691e+00  4.7391454682506062e-01  2.5613371031176063e-01  1.0383366818908872e+00  1.0281730915460221e+00  1.9616563504864010e-01  5.8548029762402365e-01  1.0263731871704891e+00  9.1213951950139949e-01  8.6561436300163586e-01  9.7211330958195596e-01  1.0285591758322927e+00  3.3784122390291543e-01  3.4797958745220892e-01  8.6811852755009122e-01  7.4311374838556066e-01  9.2172320068597735e-01  8.5987164422433759e-01  1.0355561985815593e+00  6.1510934016301710e-01  5.7007315378359458e-01  4.8333333713547577e-01  2.6163667108331040e-01  4.2580700640291252e-01  6.0875899039729908e-01  6.1573261777862609e-01  9.3907132438070917e-01  2.0508710938235311e-01  2.7906632947904125e-01  4.8009577094110689e-01  5.9424971291996653e-01  2.1060822367841500e-01  2.5819592152127513e-01  7.0740141201028639e-01  7.0574980755239880e-01  4.0140284874117982e-01  6.5459118526226534e-01  8.0405655013133859e-01  8.4122939452984280e-01  7.8624949624132179e-01  1.0376734181836647e+00  1.0383175050800706e+00  1.0305186657885697e+00  9.3623075052500349e-01  8.3486920054213276e-01  1.7293572444046770e-01  8.6626426798375755e-01  9.7842626512777908e-01  4.9192727186208118e-01  7.5610110457030999e-01  8.9896221408391663e-01  8.7563900403769912e-01  9.9950931163996393e-01  1.0299481382489533e+00  1.0283544830807869e+00  6.9614440920899512e-01  1.0324196685062701e+00  4.9455764554163278e-01  6.3948762154862127e-01  1.0337823237186721e+00  1.0236818162113031e+00  9.2727582462108693e-01  1.6932536646828830e-01  1.0402020165669641e+00  1.0314831440285885e+00  1.0396935660710949e+00  9.4779120282531626e-01  1.0272753687947822e+00  9.6072031760047938e-01  8.5267632627451184e-01  6.9741191268274927e-01  1.6013353064097652e-01  1.0382322969220852e+00  1.0285273925876275e+00  1.0275375907243096e+00  1.0402088101369455e+00  1.0375543102380804e+00  1.6360281031070351e-01  6.2041758193496399e-01  1.6337131879742320e-01  1.0192984670008258e+00  1.6148637519923245e-01  7.1195766012147721e-01  1.0278998189102284e+00  1.5786719850440822e-01  9.7943463032455613e-01  8.4482499159253310e-01  8.4331053135452361e-01  4.2444542230312948e-01  1.0200269991004989e+00  1.0293683021643476e+00  1.0291467425892726e+00  1.0283510852453608e+00  1.5441594122352925e-01  1.9723439429758394e-01  1.6111689804113061e-01  1.0357923183829045e+00  1.0383674117739359e+00  8.4294880950445850e-01  4.9730169707099342e-01  1.5594779297108727e-01  6.6408991235900194e-01  9.9296098325793358e-01  6.4288423587224119e-01  1.0242185875726089e+00  1.0391539729506354e+00  4.6504035693833368e-01  5.7285455944230423e-01  1.0274939184813390e+00  1.0348258392043366e+00  1.0046639262238415e+00  1.0377057513613601e+00  1.5971034677865353e-01  1.0338885687921400e+00  9.6136821299209485e-01  1.0077050354832202e+00  1.0312076060847899e+00  9.7898310881683825e-01  1.0345000673890195e+00  1.0376394213974280e+00  6.8743447386989653e-01  4.5828891644281750e-01  1.0307841165137988e+00  1.0373954981699194e+00  7.8961604912831718e-01  1.0008472549721592e+00  7.8903442975850069e-01  1.0382530546164226e+00  1.0383130817603243e+00  1.0386082522780866e+00  1.0145122716777668e+00  1.0253133230028608e+00  6.2942253226021438e-01  2.3966705720526899e-01  1.0138075624953728e+00  3.4970826711661696e-01  1.0154403549168014e+00  8.9899837801405247e-01  9.6837250668972874e-01  1.0047659909301869e+00  8.3487709929354115e-01  1.0396755040613306e+00  1.0338249393868140e+00  9.9455264747724315e-01  9.2084380118181108e-01  1.0363206201972270e+00  0.0000000000000000e+00  1.0281729428516257e+00  1.0291221377497477e+00  9.4057394953635565e-01  9.3349292664565620e-01  4.7980309217076555e-01  1.0270305422152304e+00  1.0315872346519965e+00  7.2934075414395938e-01  9.2608363059960375e-01  1.0141135686043294e+00  7.6187000095165114e-01  8.2039951162061220e-01  0.0000000000000000e+00  1.0365976671427399e+00  1.5594775020652055e-01  4.4224838668519989e-01  1.0363150707912139e+00  3.9380261921651405e-01  1.9490802465406587e-01  7.2862851534927453e-01  9.7004170484001828e-01  1.0071541689787420e+00  1.7805488609710909e-01  8.3418779442216850e-01  3.9753054642948360e-01  5.0427049869717844e-01  9.8352979126543694e-01  1.0393994214227467e+00  5.0289789647278094e-01  1.0400918852427958e+00  1.5524727024353452e-01  1.0323741354543807e+00  1.0057728391039815e+00  4.8881278994233085e-01  7.7255234813367379e-01  6.8627546163661490e-01  1.0349532481560855e+00  4.7408261940129875e-01  4.9132471657335164e-01  7.7045339570419502e-01  0.0000000000000000e+00  1.0171375588509219e+00  0.0000000000000000e+00  7.9458309762216572e-01  9.7244814560904458e-01  9.9638219435826547e-01  8.7505167806497497e-01  1.0281175294239053e+00  1.0329786595297055e+00  1.0376269979379316e+00  9.4405541742901189e-01  1.0241636178581022e+00  0.0000000000000000e+00  1.8073898666657287e-01  7.4313694053128709e-01  1.5404302740459358e-01  6.0224381468616051e-01  9.2539138093562956e-01  3.4052783155226735e-01  8.2040527510805861e-01  6.4977793641284776e-01  5.2701804409269337e-01  2.6667564818404504e-01  0.0000000000000000e+00  3.9209013843017221e-01  3.9677141494731583e-01  4.2358562979064657e-01  1.0296284371877773e+00  0.0000000000000000e+00  7.9592355446992269e-01  6.5288303910894419e-01  1.0267945657734943e+00  1.0225812009266657e+00  1.0387028275649186e+00  1.0362152706331085e+00  1.0206377136398928e+00  1.0379581443327006e+00  1.0257159942820209e+00  5.6401551895803981e-01  8.6790226230391987e-01  6.9452889571905596e-01  8.8272933547591381e-01  1.0340949456331894e+00  1.0327017320077780e+00  0.0000000000000000e+00  7.9143176494366563e-01  1.7588075036914472e-01  2.1632811616843911e-01  9.1825843046938982e-01  9.5210660196857533e-01  1.0357633867294982e+00  2.0248640852407945e-01  6.1315382346193636e-01  1.0360121698047504e+00  9.9949736366138597e-01  1.0341977660147468e+00  9.1728936132322059e-01  1.0378171249701087e+00  1.0283353696893431e+00  9.4754557982378029e-01  1.5786953978274443e-01  1.6976551852399521e-01  1.7379567995573406e-01  1.0404579715651778e+00  4.5287729243103741e-01  9.8980752925679394e-01  1.0346039738822559e+00  1.0395977829216023e+00  1.0402996049352173e+00  7.4498433977917766e-01  8.8063086536573498e-01  3.8233035543913907e-01  1.6521405027705333e-01  1.0367444024297481e+00  9.4855218765519611e-01  9.8661796725231621e-01  1.0347659422696032e+00  1.0355605031555157e+00  1.0299226096324483e+00  9.2297670349638361e-01  8.9284073502337180e-01  9.8441921948335309e-01  1.5545937636618987e-01  0.0000000000000000e+00  8.9876954861038372e-01  1.0344026976005289e+00  1.0342579991264504e+00  1.0403856773678353e+00  4.5418566650066156e-01  1.7388026326510417e-01  1.0269415939451310e+00  5.7579521558945279e-01  6.0047732129452180e-01  9.8927603776025286e-01  1.0098421162638032e+00  5.4549458774070581e-01  4.4523961665899892e-01  6.5239837638300757e-01  6.8056682523153267e-01  1.0311131364878270e+00  5.1477853146831487e-01  6.6975939753632197e-01  6.7905205944869462e-01  1.0238622215792976e+00  7.7851681847216370e-01  7.9530559591868433e-01  1.0328136628120692e+00  1.0204864700536134e+00  6.1732817449323840e-01  9.2751005889491112e-01  3.1491590230250982e-01  8.9038628680164800e-01  1.0368621988082394e+00  1.6679058535847824e-01  3.7014872833010848e-01  1.0249087228796354e+00  3.8907003401129603e-01  4.7122418483084355e-01  3.7446610784276951e-01  7.1658261190664563e-01  1.0091780902544298e+00  1.0250002432279501e+00  4.5970502006322750e-01  1.0291452598135367e+00  1.0381384360592167e+00  8.6589446185328556e-01  8.5829653468437217e-01  5.2321220277377090e-01  8.2968277967595927e-01  8.2484235108795845e-01  1.0354846337391315e+00  1.0400244146471285e+00  9.6720607636632028e-01  1.0282113700984186e+00  7.3087256414780322e-01  1.0349335626059759e+00  1.0299540060715175e+00  3.9114148143682459e-01  1.0067846888677390e+00  6.3557278413982388e-01  1.0284479771881532e+00  6.8679907018019726e-01  1.6397241020171946e-01  3.3335678127011825e-01  4.3299342138704022e-01  5.5258887516483202e-01  1.0372792350826410e+00  1.0391683378198575e+00  1.0378599586508854e+00  8.1329566607061587e-01  1.0316646276554964e+00  1.0209998298731735e+00  9.5896775957083835e-01  9.7811613557664334e-01  1.0282296036096665e+00  0.0000000000000000e+00  8.6227419680956829e-01  7.7190128260724866e-01  6.0749396616316131e-01  5.1218241101841211e-01  7.1829430512761727e-01  6.3257000133721164e-01  1.0278104209561565e+00  4.7745309346201315e-01  1.0049716353449869e+00  7.4888143449479727e-01  8.0665386493844993e-01  9.1458516436804127e-01  0.0000000000000000e+00  4.2680865546304114e-01  4.0608249737893948e-01  6.5131828653208901e-01  6.0720014541634448e-01  6.4563645325574448e-01  9.7625441650474476e-01  9.2124828877781073e-01  1.0220358263731422e+00  1.0339319179770825e+00  6.3632000955695989e-01  0.0000000000000000e+00  1.5521183748298931e-01  3.6439036157811994e-01  1.0336339581119554e+00  4.5886677920697899e-01  8.4391092418496583e-01  1.0403391610527430e+00  1.0313939451447023e+00  6.2293389801382038e-01  8.8771464193960570e-01  6.8384975257945702e-01  2.4731807827227126e-01  1.0358352959786874e+00  1.0126865956303217e+00  1.0274345243537648e+00  1.0261145418527575e+00  2.1440248619706664e-01  6.5119520841750311e-01  1.6347944432704248e-01  1.0253329112702021e+00  2.0974323108091625e-01  1.0342811240569512e+00  8.2469576254559029e-01  6.5103726409889850e-01  0.0000000000000000e+00  0.0000000000000000e+00  0.0000000000000000e+00  1.5437270696150393e-01  0.0000000000000000e+00  0.0000000000000000e+00  1.0203715411582801e+00  4.2707969907453414e-01  0.0000000000000000e+00  0.0000000000000000e+00  1.0199336356583268e+00  0.0000000000000000e+00  0.0000000000000000e+00  1.0286632747770741e+00  1.0288755691846128e+00  1.0391395984326084e+00  1.0384365211971516e+00  1.0288131032452181e+00  1.0287167685199485e+00  0.0000000000000000e+00  9.4821674669255807e-01  0.0000000000000000e+00  0.0000000000000000e+00  8.2444436054822301e-01  0.0000000000000000e+00  0.0000000000000000e+00  4.2628734634533261e-01  0.0000000000000000e+00  0.0000000000000000e+00  6.5089174027630325e-01  0.0000000000000000e+00  4.2667117705909807e-01  1.5549177351893007e-01  0.0000000000000000e+00  1.0385198150983461e+00  0.0000000000000000e+00  8.2517928267088914e-01  0.0000000000000000e+00  9.4815200156435775e-01  6.5113573751957665e-01  8.8169643708049772e-01  9.6963262010979512e-01  3.6323059050776774e-01  8.9292259439548571e-01  8.7985646134612161e-01  9.8285346084321090e-01  9.8037288833762148e-01  9.4000569524076460e-01  8.3780544086340536e-01  8.2166508045729514e-01  9.6832433337308221e-01  1.3423763324212021e-01  8.6146992329596828e-01  7.5161162111272628e-01  9.2943949294104455e-01  1.0387701210467826e+00  1.0245921634641781e+00  1.0360588382935445e+00  1.0288330621733948e+00  1.3594342647159616e-01  8.1661560141844947e-01  9.3980828064508393e-01  1.0367022579033407e+00  1.0241087763525294e+00  9.8014909463532363e-01  1.0289454447037061e+00  1.0338557983199674e+00  1.0387938198933095e+00  9.7566579067238701e-01  1.0276661904703996e+00  1.0377694666287964e+00  8.8140824270393048e-01  1.0360132486474221e+00  1.0322003163946549e+00  6.5681946093229249e-01  1.0397276406827294e+00  1.0315213135377599e+00  9.6372560700726051e-01  1.0206815026645297e+00  1.0369070828789801e+00  9.1423203392720320e-01  7.9032266826713604e-01  1.0286123094114368e+00  7.8239394270328688e-01  1.0063238622267452e+00  1.0209429587854120e+00  1.0313587265652289e+00  6.2390245738514427e-01  1.0371842967606444e+00  1.0331022402977337e+00  1.0285616726159563e+00  1.0340702242291722e+00  9.5457457996543127e-01  1.0052363002292695e+00  9.5354380957328244e-01  8.6114193588776466e-01  8.9264639857672123e-01  3.8110758163841241e-01  9.8619612167346815e-01  9.5200736757619397e-01  1.0331991285533162e+00  3.8417033005502171e-01  2.9578081675140722e-01  8.6260248120117178e-01  9.2632055024017201e-01  1.0325059481020147e+00  4.2006061592555272e-01  7.0362962668259199e-01  1.0320596551579706e+00  1.0182167204596935e+00  9.8748413799092805e-01  4.1717374856601475e-01  6.2850663139158214e-01  5.3688264057408464e-01  3.6809639475185024e-01  1.0363490394083810e+00  8.3576263497309644e-01  9.6377293340265724e-01  1.0349310721151521e+00  8.7601882591908220e-01  9.1550672768621522e-01  1.0068231229772155e+00  1.2957293975474898e-01  1.0315019615534593e+00  1.0372488143041043e+00  1.0255461194586633e+00  1.0307516841842024e+00  1.0249284349008778e+00  9.8212448036265676e-01  3.1621227782892219e-01  1.0253932495957010e+00  1.0029728752219707e+00  1.0310627471588938e+00  6.5663700125710533e-01  5.3073138995149638e-01  7.9784735895040937e-01  3.9377624249803000e-01  5.0629871381406266e-01  5.3177800044644474e-01  9.6061489239677500e-01  4.1598754286386846e-01  1.4606111371758418e-01  1.0372154665682149e+00  1.5509810481424471e-01  9.7105924326221171e-01  1.0266209926405474e+00  7.9275466691720398e-01  7.4584909436816516e-01  1.0006263235093642e+00  1.0314898653610871e+00  7.3283700813687624e-01  1.0366197688120069e+00  1.3896890812617424e-01  3.1486471469990857e-01  2.2200504817294062e-01  7.9137224054910937e-01  7.3922219725852922e-01  8.2141184097168751e-01  1.2934537924732162e-01  6.4843348628526143e-01  9.3750309902119566e-01  2.8492055517226295e-01  1.0372297084778237e+00  1.4923829733866953e-01  4.0737006544101673e-01  5.8322579957263010e-01  5.0783868259519183e-01  3.8681089594126544e-01  1.0216702374284821e+00  9.01915