<?xml version="1.0"?>
<VTKFile type="UnstructuredGrid"  version="0.1"  >
<UnstructuredGrid>
<Piece  NumberOfPoints="2513" NumberOfCells="4852">
<Points>
<DataArray  type="Float64"  NumberOfComponents="3"  format="ascii">-1 1 0  -1 -1 0  1 -1 0  1 1 0  0 -1 0  1 0 0  0 1 0  -1 0 0  0 0 0  -1 -0.5 0  -0.5 -1 0  -0.5 1 0  -1 0.5 0  1 -0.5 0  0.5 -1 0  1 0.5 0  0.5 1 0  0.4166666666666666 -0.4166666666666667 0  -0.4166666666666667 0.4166666666666667 0  -0.25 -0.5 0  0.5 0.25 0  -0.4861111111111112 -0.06944444444444445 0  0.0732758620689655 0.507183908045977 0  -0.625 -0.625 0  0.625 0.625 0  0.7380952380952381 -0.25 0  -0.7099116161616161 0.2105429292929293 0  -0.25 0.7380952380952381 0  0.105392156862745 -0.6348039215686275 0  0.6770833333333334 -0.6770833333333333 0  -0.6770833333333334 0.6770833333333334 0  0.3472222222222222 -0.06944444444444446 0  -0.7264957264957265 -0.3044871794871795 0  0.3141940982507127 0.7297313660835709 0  0.02049587951122483 -0.3227479397556124 0  -0.2690972222222223 0.1475694444444444 0  0.3859500089908372 -0.7274430156831472 0  -0.2228477945123298 -0.1761765495248019 0  0.2182539682539683 0.1884920634920635 0  0.75 0.375 0  -0.145442219440968 -0.7602211097204841 0  0.7088913690476191 0.0427827380952381 0  -0.75 -1 0  -1 -0.75 0  1 0.75 0  0.75 1 0  -0.7439982703698937 -0.04614153195464455 0  -0.4609235096577606 -0.3356498099556895 0  0.4063134471431929 0.4895621842856023 0  0.25 -1 0  -0.25 -1 0  -0.75 1 0  0.75 -1 0  -1 -0.25 0  -1 0.25 0  1 -0.25 0  -0.25 1 0  1 -0.75 0  -1 0.75 0  0.25 1 0  1 0.25 0  -0.4041423272138783 -0.7597141090712928 0  0.06500839607911253 0.7578103030529481 0  -0.1572801182352047 0.3838997021864289 0  -0.6528005242053915 0.4409494757946086 0  -0.4930160984848485 0.1544744318181818 0  -0.4732142857142858 0.7752976190476191 0  0.6398809523809523 -0.4538690476190476 0  0.5166054117396399 -0.2161233620965164 0  -0.002273787244753427 0.2232363985975174 0  0.1500564496765022 -0.1524955293952667 0  0.2016720420046758 -0.4410343282803009 0  -0.08495178036419618 0.6274139771124571 0  -0.8367311471133162 0.3642591720794645 0  -0.8333333333333334 -0.625 0  -0.594323836800685 -0.8231079456002283 0  -0.4466957714776065 -0.5349126855671806 0  0.8125 0.5625 0  0.78125 0.78125 0  0.5091392650016769 0.7947130883338923 0  0.125 -0.8382681931833136 0  -0.8184523809523809 -0.8184523809523809 0  -0.07781530426104531 -0.5819319697006881 0  0.5085055196703295 0.04967610411902112 0  0.2918471072074933 -0.276017202318847 0  0.5120763537765269 -0.5898771553229597 0  0.625 -0.8585349462365591 0  0.8158532234335381 -0.8158532234335381 0  -0.5198088446315396 0.5739411553684605 0  -0.8585349462365591 0.625 0  -0.8150493805516597 0.8156205699829586 0  0.8585349462365591 -0.625 0  -0.2688268348649726 0.5439331383603209 0  0.8242100426758139 -0.4436043596336612 0  0.5833756314287952 0.4479378157143976 0  0.8690476190476191 -0.125 0  -0.125 0.8690476190476191 0  -0.8692745600729823 0.125 0  0.8696725120759167 0.125 0  -0.625 0.8711516477451908 0  0.2339522463269718 0.3879558377955778 0  0.2453709502295031 0.5655822922838026 0  0.1730610651637797 0.02021709580868947 0  0.3245402594056757 -0.5644672020485209 0  -0.7291666666666666 -0.4816595441595442 0  -1 -0.375 0  -0.5811140848639904 -0.2127276307675001 0  0.673332592838314 0.2158348143233718 0  0.375 1 0  -0.5714768890989919 0.2985103444040069 0  -1 -0.125 0  -0.8453692574786325 -0.1875 0  -0.3144549134065865 -0.02408675326008025 0  -0.2898414972096258 -0.3336092734780093 0  -0.1075052092206287 -0.4224330421314983 0  -0.05043970703604117 -0.1652278959397459 0  0.6459672950297897 -0.1113415301525317 0  0.4645210271029513 0.6398480556579343 0  0.3512863754411909 0.0937979496253573 0  -0.6063160985568274 0.03891469652249891 0  -0.3428819444444445 0.8690476190476191 0  0.625 1 0  -0.1602164796159982 0.02697860906625157 0  0.04648110064133829 -0.4808416424239687 0  1 0.875 0  -0.3836102479201657 0.6484936449177356 0  -0.3776011723096096 0.263078478984336 0  -0.6024978259969829 -0.3949628096211138 0  0.125 1 0  0.2010781308272777 0.8456221018461906 0  0.2822509696388829 -0.845902544691141 0  -0.3285533674953515 -0.6289773550938936 0  0.3461306793221754 0.278777492464833 0  0.4737475672408696 -0.8508448959534423 0  0.2384632828836344 -0.7029523187242811 0  -0.004777287059791593 0.3759269695907358 0  -0.8499735021850066 -0.3912320205328522 0  0.1222536293721587 0.2963971539625205 0  -0.3769456520999688 -0.203572526805711 0  -0.2749617205755651 -0.8464290792698902 0  0.004805888512766143 -0.747174355248311 0  -0.125 -1 0  -0.06001061822252458 -0.8724007765244854 0  0.875 0.4375 0  0.854421179608893 0.271342359217786 0  0.875 1 0  -0.1499861095763589 0.2358309656934888 0  0.3381943639137225 0.8663061796405532 0  -0.7853090110442228 0.4998412775277108 0  0.7398165998560814 -0.5535192694951373 0  0.1580042122341573 -0.3100246140259917 0  -0.7291666666666667 -0.7142857142857142 0  -0.375 -1 0  0.6483368386154684 0.8514905990110488 0  -0.1295370103291928 -0.2826118305021242 0  0.07458201853700455 0.1123894386563915 0  0.6146465857036327 -0.3161203659316075 0  0.5551898493894731 -0.740296118159085 0  0.375 -1 0  0.482702798370208 -0.084133350091034 0  0.87890625 0.68359375 0  -0.05917195534525846 0.4971092425697621 0  0.1260710309213975 0.6343750312956699 0  0.8690476190476191 -0.3077066815262848 0  -0.2912010232560567 0.3668168386732139 0  -0.875 1 0  -1 0.875 0  1 -0.875 0  0.875 -1 0  -0.8689564281364567 -0.006189266075306407 0  -0.7449425635110547 0.08458938160051771 0  -0.7150266761936593 -0.1739444581417552 0  -0.5260034831318311 -0.711099823962112 0  -0.4724626808827322 -0.871722230709409 0  0.4734436795977052 0.377714794132168 0  -0.875 -1 0  -1 -0.875 0  0.6927189078571988 0.5156567235715964 0  -0.3742497615796874 -0.4296005251260107 0  -0.1969436423297711 -0.6387157229772615 0  -0.6179496409766825 -0.08933356056510935 0  -0.424405057115988 0.04452428810878029 0  -0.08479048335844169 0.1279607007132633 0  0.003830300099055113 0.8712085230656206 0  0.8748778838820267 -1.379218479898026e-05 0  -0.375 1 0  -0.625 1 0  1 0.125 0  -0.125 1 0  1 -0.375 0  1 -0.125 0  1 -0.625 0  0.625 -1 0  0.125 -1 0  -0.625 -1 0  -1 -0.625 0  -1 0.125 0  -1 0.375 0  -1 0.625 0  1 0.375 0  1 0.625 0  0.6325660748712082 0.3335187599557389 0  -0.06420945895056573 0.7549874027425891 0  -0.8769015540914771 0.2478802253893416 0  0.871875 0.871875 0  -0.6868091492840067 0.3270978624973681 0  -0.5363597469565949 0.412994850055505 0  -0.6803734992638302 0.5574295000651103 0  -0.7076253581162534 -0.8803439094224437 0  -0.8778089002295137 -0.5106896447504627 0  -0.3860184984222981 0.530566778071246 0  0.6109900617121508 0.1128453077697081 0  0.3896945134930274 -0.1915382873255086 0  0.7605656944697778 -0.06822134873122943 0  0.3576151269893478 0.5948388411612135 0  -0.5689902680792265 -0.5143596830118065 0  0.6262446286847614 -0.5735657901943212 0  0.2030558252325225 -0.5625263842513452 0  0.6123273142928579 0.7407533260723429 0  0.4016460890123554 -0.3042863223111857 0  -0.59039693199147 0.7578418819188018 0  0.7276932493917544 -0.3705808024528924 0  0.5222536818742854 -0.4713886230400014 0  -0.5101986527137737 0.8848365765607674 0  0.510560172809238 0.5356013299918891 0  -0.3603569195756083 0.75823710606415 0  0.1967279277813232 0.728226870058472 0  -0.6086880986371127 0.1545624071548516 0  -0.38105366729386 0.1511189987807864 0  -0.2944659463671584 -0.7359061804869591 0  0.5060729154966499 -0.3475227845833823 0  -0.09281616240412746 -0.06197858250969457 0  0.7649739583333334 0.6673177083333334 0  0.7628906249999999 0.890234375 0  -0.2666864184909611 0.2585504071132311 0  0.3635064892129658 0.3878003602709461 0  -0.2339409722222222 0.8901937905844155 0  -0.1718792125974916 -0.8957733325456778 0  0.1001768566329531 0.4023510017391879 0  0.3120260172693757 -0.4540546875576884 0  0.7804062804433681 0.1896628610854537 0  0.4087715451998049 0.187961780041608 0  -0.1584963477271457 0.5451611892421655 0  -0.8926817849258324 0.463022006336401 0  0.2338091473445219 -0.07576267331277289 0  0.08171112182813692 -0.2349087687359925 0  0.04635385178956847 -0.1044635073718474 0  -0.4377391632114205 -0.6448874471423088 0  -0.1907678351227189 0.6480215912813945 0  0.300605946475244 0.4741444604171038 0  -0.2145033720757486 -0.06751709909419711 0  0.6069191921170397 -0.005492331448357812 0  0.0214718770761248 0.6032397936031719 0  0.5476675683364878 0.8992752415326501 0  0.4387475014316537 0.9093708953002239 0  -0.4932997685306436 -0.4381009159993523 0  0.2515197695339056 -0.1791673369138964 0  -0.7291666666666667 -0.6088789682539681 0  -0.9166666666666667 -0.6875 0  0.620579540363709 -0.2122431523583302 0  -0.484950136419973 0.6719440339397442 0  0.2857044415400258 0.0137589173127316 0  -0.8945708364098356 -0.288306105327986 0  0.4043102720140535 0.7842914560451557 0  0.04123256238752064 -0.9026968245801402 0  0.2003676884403109 -0.9091888601740487 0  0.1068775558538842 -0.7373377130403223 0  -0.4804566783514427 -0.1763307203045643 0  0.108286342087769 -0.3993789328997278 0  -0.191883080105361 -0.3640821726430649 0  -0.07025064492006244 0.2984876656890053 0  -0.7039324641409584 0.788312126296613 0  -0.7311286585775438 0.8932502354831682 0  0.5171409396884947 0.1503852691889257 0  0.4229392823658633 -0.003216522184234835 0  -0.5621736087218259 -0.919558629836806 0  -0.626474064879544 -0.7266572613636506 0  0.2446828746617422 0.2867616783302419 0  0.1759429608742923 0.4776611759306416 0  -0.3468240303741654 -0.5260416435617549 0  -0.7465808808425306 0.4069574477998361 0  -0.7819962170660292 0.2802441065650652 0  -0.3742623214119594 -0.8547800509641984 0  0.1014498009713561 0.8506721983266377 0  0.4285217620918213 -0.5230190595570253 0  0.4091738370487775 -0.6256346204225141 0  0.78125 0.46875 0  0.90625 0.53125 0  -0.4791801348852565 0.2553992655702126 0  0.7843318610782772 -0.7086046956885941 0  0.8909728264971901 -0.7355183796514634 0  0.7041908166528879 -0.7830649143180282 0  0.7311821352
[...]
<PointData  Scalars="velocity-2"> 
<DataArray  type="Float64"  Name="velocity-2"  format="ascii">0.0000000000000000e+00  0.0000000000000000e+00  0.0000000000000000e+00  0.0000000000000000e+00  0.0000000000000000e+00  1.6484423223445597e+00  0.0000000000000000e+00  1.6483591517371261e+00  1.6479346662165193e+00  1.2417432934575869e+00  0.0000000000000000e+00  0.0000000000000000e+00  1.2410110193960935e+00  1.2419188361279905e+00  0.0000000000000000e+00  1.2414943156156186e+00  0.0000000000000000e+00  1.3706959698016314e+00  1.3702760424436453e+00  1.2410221238897934e+00  1.5484675753296142e+00  1.6411462405100639e+00  1.2284466558048963e+00  1.0015367292249620e+00  1.0015443602846086e+00  1.5490935226859388e+00  1.5778914654497636e+00  7.4300647181173174e-01  9.8069373961902839e-01  8.8707113163385520e-01  8.8818419330755172e-01  1.6407081426127632e+00  1.5018719308047064e+00  7.6354512101084493e-01  1.4827882027791748e+00  1.6134032833623069e+00  7.6903398604438544e-01  1.5970402045517598e+00  1.5920042433651493e+00  1.4234976300950630e+00  6.8807673241535472e-01  1.6446269588620692e+00  0.0000000000000000e+00  7.1410410674861724e-01  7.1434308047099515e-01  0.0000000000000000e+00  1.6446790568734047e+00  1.4687001824682455e+00  1.2577860911142948e+00  0.0000000000000000e+00  0.0000000000000000e+00  0.0000000000000000e+00  0.0000000000000000e+00  1.5493903617378904e+00  1.5494346853501515e+00  1.5493342940552826e+00  0.0000000000000000e+00  7.1407438796202449e-01  7.1407582205490960e-01  0.0000000000000000e+00  1.5496170206511992e+00  6.8954256310775519e-01  6.9436080500172481e-01  1.4130240741226801e+00  1.3356959576852270e+00  1.6094353455201713e+00  6.4975676594937803e-01  1.3152662587810884e+00  1.5747359320620267e+00  1.5696825595354507e+00  1.6106234279227141e+00  1.3356285858973440e+00  9.9626423654782992e-01  1.4378032693000562e+00  1.0016947882522806e+00  5.2429780438072371e-01  1.1796366226762551e+00  1.1278490285757365e+00  6.3463553677773243e-01  5.9904925258689212e-01  4.8285233425139384e-01  5.3750720642342054e-01  1.0901552146909290e+00  1.6438028665966657e+00  1.5275394881808009e+00  1.0734411182697965e+00  4.2671740051906148e-01  5.4430806410837362e-01  1.1053617857712710e+00  1.0017552287945961e+00  5.4408289253517184e-01  1.0019109509684594e+00  1.1635781360622615e+00  1.3317690656678394e+00  1.3242788546598625e+00  1.6232524762276215e+00  3.9678273714901779e-01  1.6235578395410140e+00  1.6232459927437113e+00  3.9065282836447685e-01  1.4080146276409873e+00  1.1220673367497445e+00  1.6471109586788271e+00  1.1244201804680676e+00  1.2719891694796799e+00  1.4250118341680305e+00  1.5773027755881723e+00  1.5740401657068965e+00  0.0000000000000000e+00  1.5063649246377266e+00  1.6237938737166429e+00  1.5924568589882406e+00  1.6463936442825746e+00  1.4713380260793782e+00  1.3615690461693153e+00  1.6058346828336945e+00  1.6282252804878670e+00  9.6949532553915707e-01  1.6339749484528818e+00  1.6458045369078980e+00  3.9631674307283354e-01  0.0000000000000000e+00  1.6479435428167326e+00  1.2733104117889908e+00  3.8030039500777141e-01  9.5142573091531879e-01  1.5377368372348179e+00  1.3995239268624380e+00  0.0000000000000000e+00  4.6271559335975920e-01  4.6161987508044683e-01  9.9310132788677341e-01  1.5249159727145225e+00  4.4817672696946592e-01  8.2692511996194740e-01  1.4239582830028092e+00  1.4042230693984770e+00  1.5097955931435256e+00  1.5819379239892142e+00  4.6057466256999313e-01  7.2102199520858135e-01  0.0000000000000000e+00  3.8718831728096503e-01  1.3406551103965034e+00  1.5318766371716985e+00  0.0000000000000000e+00  1.5602464328639605e+00  4.0503271530895663e-01  1.2421782511677235e+00  1.1449569008961167e+00  1.4957982081741417e+00  8.0113841762615523e-01  0.0000000000000000e+00  4.4519927263935127e-01  1.5217816084043392e+00  1.6289422347851990e+00  1.4901923958565626e+00  7.3719909394490457e-01  0.0000000000000000e+00  1.6369925618015719e+00  8.7232706529935933e-01  1.2458267800706715e+00  9.8205908991855628e-01  1.4983250629104574e+00  1.4342801464002117e+00  0.0000000000000000e+00  3.8084812145984814e-01  3.8029975057139814e-01  0.0000000000000000e+00  1.6480056045973503e+00  1.6358922878650579e+00  1.5999919280830024e+00  8.0781497180109141e-01  3.8945850967874784e-01  1.4191240628454689e+00  0.0000000000000000e+00  3.8041477711292226e-01  1.2143480405367206e+00  1.3517008557557992e+00  9.7167067633515725e-01  1.6358187447153425e+00  1.6446124581576398e+00  1.6220948138318536e+00  3.9165085813525841e-01  1.6475874326856534e+00  0.0000000000000000e+00  0.0000000000000000e+00  1.6239475294006467e+00  0.0000000000000000e+00  1.4246616902520204e+00  1.6238951426686554e+00  1.0015522772548380e+00  0.0000000000000000e+00  0.0000000000000000e+00  0.0000000000000000e+00  1.0016665626865640e+00  1.6234449862784404e+00  1.4247664363503674e+00  1.0018883806402645e+00  1.4251189736756791e+00  1.0017597327895795e+00  1.4717375622344402e+00  7.0115052429233982e-01  1.5512553847004515e+00  3.8839448694276574e-01  1.4793251846463553e+00  1.3756521720326640e+00  1.1379856569922329e+00  3.6567212548189343e-01  1.2230191581900207e+00  1.1868497536345979e+00  1.6280308885546630e+00  1.5899760001157053e+00  1.6404749520163240e+00  1.0637427422659724e+00  1.2166819383763250e+00  1.1060011355752914e+00  1.1273409296132795e+00  7.3652630534782182e-01  1.5022331071101938e+00  6.9393436787599783e-01  1.4293849815982080e+00  1.2889914534956330e+00  3.5213476154248302e-01  1.1778052304478457e+00  6.9389244820197105e-01  7.6758341603661262e-01  1.6099297431456949e+00  1.6120280260455710e+00  7.4856964436858819e-01  1.4562746334502217e+00  1.6416960702257195e+00  9.0923733248005978e-01  3.3600492566207463e-01  1.5417706266954221e+00  1.4078244746223607e+00  3.3611599279598353e-01  3.1954021647275110e-01  1.3893888935093255e+00  1.3148715185279045e+00  1.5908408961490719e+00  1.5920557156637751e+00  1.1606223888761196e+00  1.3015839119442485e+00  1.6389358559778480e+00  1.5608388635463371e+00  1.6313134740046349e+00  9.5957972651148471e-01  9.5196136486365557e-01  1.2830285550778961e+00  1.6405192183730926e+00  1.6488607786319824e+00  1.0466341714503349e+00  3.1051651601207853e-01  2.8012611128545295e-01  1.3395594525742649e+00  1.5967969174378029e+00  1.0359622226541141e+00  8.6329523495114546e-01  1.5763131808635915e+00  8.9934883381943975e-01  1.6479305092942673e+00  1.5167280683476567e+00  6.2711770423587487e-01  2.9934000234537028e-01  2.7999651760976102e-01  7.4495213206797717e-01  1.5985181373369162e+00  1.3930192452788199e+00  1.4377101272228281e+00  1.5069992173767077e+00  6.1654118761167975e-01  3.2751387811705945e-01  1.6118000624250326e+00  1.6480688362376510e+00  2.4975916527559333e-01  7.7164364931034946e-01  1.5175922078716888e+00  1.2788075719522971e+00  1.1955464066241595e+00  1.3842690988172772e+00  1.5237020139451405e+00  4.3656230158234555e-01  4.4892619366292280e-01  1.2019130338511028e+00  9.9996379152174619e-01  1.2936964644451117e+00  1.1867992271517662e+00  1.5448210496408610e+00  8.1473206752655336e-01  7.4907639497108292e-01  6.2964883930227133e-01  3.3521626788823172e-01  5.5253793023691111e-01  8.0375343129701615e-01  8.1488765203036051e-01  1.3227246172410088e+00  2.6284031190359142e-01  3.5513760976282099e-01  6.2690748220730386e-01  7.8272930264297558e-01  2.6819320909334254e-01  3.2940100752200496e-01  9.4948479476428005e-01  9.4512681514879571e-01  5.1736606817033592e-01  8.7037985043822030e-01  1.0971685468681789e+00  1.1557060121426967e+00  1.0675600978187991e+00  1.5964343795158871e+00  1.5851857665294007e+00  1.6312848998447675e+00  1.3162318058320674e+00  1.1449488141154067e+00  2.2070024225043494e-01  1.1990456215317034e+00  1.3988887907745409e+00  6.4355007231986272e-01  1.0226204293860404e+00  1.2531806333063260e+00  1.2127566488907100e+00  1.4473639330275700e+00  1.5242514093305575e+00  1.6402230489049099e+00  9.2942816601591416e-01  1.6335448633817160e+00  6.4428659678685651e-01  8.4800421455678876e-01  1.6251904547687346e+00  1.5062326553956527e+00  1.3035585709791018e+00  2.1454069274822374e-01  1.6056309690841692e+00  1.6341525870871294e+00  1.5739059504298820e+00  1.3405062762863942e+00  1.6468113605875512e+00  1.3688238272155491e+00  1.1764468413734646e+00  9.3346994034435993e-01  2.0467213258943950e-01  1.6051529377505014e+00  1.6420908159631629e+00  1.6423765648897277e+00  1.5934784576074446e+00  1.6141720726878939e+00  2.1082306495071593e-01  8.2190021696694093e-01  2.0684917463757474e-01  1.4935369350529404e+00  2.0487598327407411e-01  9.5703398035713494e-01  1.6413488216770298e+00  1.9939920298647007e-01  1.4031389079174419e+00  1.1603331397319334e+00  1.1601151956495621e+00  5.4966418838565889e-01  1.4935897860784413e+00  1.6417522765511634e+00  1.6419469515513936e+00  1.6420320800473553e+00  1.9641512239233408e-01  2.5019184527070915e-01  2.0514713291298808e-01  1.6195519555484452e+00  1.5764146139693047e+00  1.1629687746167960e+00  6.5014779207819162e-01  1.9705375116515567e-01  8.8379068753406320e-01  1.4312731908777201e+00  8.5310639683650746e-01  1.6466941391507208e+00  1.5954719583394128e+00  6.0456270358865583e-01  7.5177285213904976e-01  1.6463736366338542e+00  1.6214698188088736e+00  1.4578735536859289e+00  1.5564329782371151e+00  2.0430465434042272e-01  1.5405034539615756e+00  1.3639949062337478e+00  1.4610362376831967e+00  1.5337231834076912e+00  1.4006105566484861e+00  1.6301606929757180e+00  1.5594728991789519e+00  9.2125486226724951e-01  5.9668560818146277e-01  1.5344368683687544e+00  1.5653543155207823e+00  1.0746552943274978e+00  1.4448032029564934e+00  1.0704039644046441e+00  1.5776988859657961e+00  1.6143102102026947e+00  1.5972502395909784e+00  1.4791762993558764e+00  1.6456853457961760e+00  8.3564047007597464e-01  3.0617626133174852e-01  1.4798925336791329e+00  4.4837788058393679e-01  1.4762405357011223e+00  1.2522639942411995e+00  1.3806436973298644e+00  1.4636821097197417e+00  1.1460277388276821e+00  1.5729956552652065e+00  1.5423750795520881e+00  1.4288047650332780e+00  1.2919483809484851e+00  1.6232512192409265e+00  0.0000000000000000e+00  1.6458287134776286e+00  1.6368498435601231e+00  1.3267642123829311e+00  1.3138491718230576e+00  6.2525885791061331e-01  1.6478458971365422e+00  1.6328783185709164e+00  9.7948054171597632e-01  1.2976658825121039e+00  1.4807903338652544e+00  1.0284988287271186e+00  1.1236266307655425e+00  0.0000000000000000e+00  1.5480503760587969e+00  1.9777467882815780e-01  5.7402937648685715e-01  1.6247057189672816e+00  5.0936928572974072e-01  2.4989915806877017e-01  9.8220580590075079e-01  1.3836507369738209e+00  1.4571561431070519e+00  2.2658982098021563e-01  1.1442276753925762e+00  5.1355086110279091e-01  6.5920272707564420e-01  1.4104301268375150e+00  1.5797756514106045e+00  6.5770110718072283e-01  1.5806960322450956e+00  1.9724862204773505e-01  1.5379165581019278e+00  1.4609594626819995e+00  6.3554703211219876e-01  1.0462444009805218e+00  9.1614432016713054e-01  1.6213046666604201e+00  6.1520400273898834e-01  6.4031272324184829e-01  1.0429830349143299e+00  0.0000000000000000e+00  1.4913864188879162e+00  0.0000000000000000e+00  1.0800021714485433e+00  1.3879815253385237e+00  1.4411107461707158e+00  1.2144657560255772e+00  1.6477843945392463e+00  1.6333948996345431e+00  1.5664826923071409e+00  1.3344554685054082e+00  1.5060444476248191e+00  0.0000000000000000e+00  2.2918610072657047e-01  1.0007850682563277e+00  1.9576755083339561e-01  7.9375591997562311e-01  1.2987367849527758e+00  4.3752147529613333e-01  1.1182499506186734e+00  8.6035533399242470e-01  6.8941619948988275e-01  3.4007151591119000e-01  0.0000000000000000e+00  5.0712889769116953e-01  5.1317828248712649e-01  5.4819022290412278e-01  1.6448402971207818e+00  0.0000000000000000e+00  1.0810003474419001e+00  8.6796877413146922e-01  1.6460421833721577e+00  1.4958403417814077e+00  1.5922615946095771e+00  1.5688874991965778e+00  1.4939835581149374e+00  1.5855201449358827e+00  1.6468913000347423e+00  7.4327569286566242e-01  1.1974060307461527e+00  9.2363759090078446e-01  1.2263107622135927e+00  1.6262141102155383e+00  1.6332635808313956e+00  0.0000000000000000e+00  1.0750296720044485e+00  2.2435406407557767e-01  2.7349633278013019e-01  1.2863418538791804e+00  1.3464919962445048e+00  1.5548511623080494e+00  2.5669851476262601e-01  8.0521259976292681e-01  1.5980838896984397e+00  1.4424004197773383e+00  1.5519541872588929e+00  1.2887239041215295e+00  1.6079795662246852e+00  1.6390124612810251e+00  1.3402392020988632e+00  2.0084376293357417e-01  2.1603859498449360e-01  2.2074432229081525e-01  1.5787261307312952e+00  5.8859731887095046e-01  1.4266437560721466e+00  1.6270461714128528e+00  1.6032833446206833e+00  1.5647920219039293e+00  1.0037570392794932e+00  1.2220449049710196e+00  4.9342365793389176e-01  2.0907505329803008e-01  1.6105792342102414e+00  1.3410985457306002e+00  1.4172811670383514e+00  1.5397086068889403e+00  1.5346087596536315e+00  1.5289794097632790e+00  1.2929250428348733e+00  1.2419132211901240e+00  1.4114447933409517e+00  1.9713305730573630e-01  0.0000000000000000e+00  1.2519184101574745e+00  1.6263398256288073e+00  1.6301938194062919e+00  1.5800987888810776e+00  5.8952509534130637e-01  2.2092427872651166e-01  1.6482326235078273e+00  7.5649015925678742e-01  7.9218278845441736e-01  1.4222220510222319e+00  1.4734462641066925e+00  7.1487007047992746e-01  5.7663620218903233e-01  8.6788079011272190e-01  9.0831612883932811e-01  1.6360506709793421e+00  6.7327141078897312e-01  8.9246188148322403e-01  9.0429515545644634e-01  1.5039857896030675e+00  1.0549288352060793e+00  1.0818839899572095e+00  1.5436209309901943e+00  1.4940530103295104e+00  8.1545404455873161e-01  1.3026759155708620e+00  4.0384262013174210e-01  1.2346365708465472e+00  1.5970451409088657e+00  2.1097287166658557e-01  4.7704718804216473e-01  1.6454021676296757e+00  5.0440157167270927e-01  6.1377969087068329e-01  4.8261440189715565e-01  9.6094072883574444e-01  1.4665951705721876e+00  1.6486941414502190e+00  5.9599624128707096e-01  1.5226618342337497e+00  1.5697471031907415e+00  1.1948999946002292e+00  1.1852712193790149e+00  6.8522239140125007e-01  1.1354368342167254e+00  1.1285241975763021e+00  1.5502865228757701e+00  1.5821593446194608e+00  1.3813529392055166e+00  1.6477019510211020e+00  9.8213008239934851e-01  1.6227559441493304e+00  1.5221437284786841e+00  5.0578062347685326e-01  1.4590617609626382e+00  8.4490249334405909e-01  1.6369888099234740e+00  9.1570077296981833e-01  2.0792399353844296e-01  4.2883771193697889e-01  5.5960672841841852e-01  7.2429838360698184e-01  1.6210830950606387e+00  1.5924730159607690e+00  1.6138504548913011e+00  1.1088642109388733e+00  1.5364723602343882e+00  1.4927428546984551e+00  1.3600463837283658e+00  1.3994699523040288e+00  1.6420418137435879e+00  0.0000000000000000e+00  1.1908150751791930e+00  1.0471795691098611e+00  8.0325174090169715e-01  6.7089143765858295e-01  9.5996246146685205e-01  8.3797194328885560e-01  1.6471384020847257e+00  6.2093981504202689e-01  1.4556558972890703e+00  1.0127255688132968e+00  1.1009421846912744e+00  1.2815756798530575e+00  0.0000000000000000e+00  5.5278976404523483e-01  5.2421821445073824e-01  8.6388704284478290e-01  8.0268787921046980e-01  8.5636861068733361e-01  1.3924024648422348e+00  1.2927899819528310e+00  1.4967201433057968e+00  1.5400255261800300e+00  8.4123213572562305e-01  0.0000000000000000e+00  1.9837501465050220e-01  4.6684568215458006e-01  1.6271458447668550e+00  5.9652820821063113e-01  1.1594255514774992e+00  1.6020574248853330e+00  1.6375320617468088e+00  8.2247852987332382e-01  1.2326684748135703e+00  9.1358953316996439e-01  3.1526329432114508e-01  1.5664636356385291e+00  1.4761735823989612e+00  1.6423040062300402e+00  1.6474942607992287e+00  2.7475457686524785e-01  8.6454128356511706e-01  2.0751236271962581e-01  1.6485751827482207e+00  2.6931129570443352e-01  1.5483110482620341e+00  1.1279943496421168e+00  8.6374416788724695e-01  0.0000000000000000e+00  0.0000000000000000e+00  0.0000000000000000e+00  1.9609002674134640e-01  0.0000000000000000e+00  0.0000000000000000e+00  1.4941031384588686e+00  5.5317847393266117e-01  0.0000000000000000e+00  0.0000000000000000e+00  1.4938967870647404e+00  0.0000000000000000e+00  0.0000000000000000e+00  1.6418787299943411e+00  1.6417715328618969e+00  1.5925738338533442e+00  1.5925330557213668e+00  1.6420089675860210e+00  1.6422239397851000e+00  0.0000000000000000e+00  1.3411047476801348e+00  0.0000000000000000e+00  0.0000000000000000e+00  1.1276699176242853e+00  0.0000000000000000e+00  0.0000000000000000e+00  5.5273249461203100e-01  0.0000000000000000e+00  0.0000000000000000e+00  8.6359680187647458e-01  0.0000000000000000e+00  5.5289340069833148e-01  1.9707440834484996e-01  0.0000000000000000e+00  1.5927322645777364e+00  0.0000000000000000e+00  1.1281985629893021e+00  0.0000000000000000e+00  1.3409125991142927e+00  8.6351512254402985e-01  1.2197088465096546e+00  1.3801564572533518e+00  4.6791031660072013e-01  1.2425393950156445e+00  1.2225575820665879e+00  1.4075177136924335e+00  1.4064686392939920e+00  1.3257786782234120e+00  1.1509169106438826e+00  1.1229183409606438e+00  1.3801221280614346e+00  1.6996504034316814e-01  1.1883748999601622e+00  1.0167274456798436e+00  1.3104473981064295e+00  1.5928989941350227e+00  1.5051674363258711e+00  1.5529409213727181e+00  1.6408491845177253e+00  1.7165632861658758e-01  1.1148036326490383e+00  1.3225911531982220e+00  1.6291714109072879e+00  1.6478880326590186e+00  1.4055613734445971e+00  1.6408822799541996e+00  1.6224848106666716e+00  1.5685177681701847e+00  1.3956229529038018e+00  1.6416990680767316e+00  1.5579182647950141e+00  1.2232843569800365e+00  1.6095997629157226e+00  1.6364751531939585e+00  8.7413999784386465e-01  1.5978457895487850e+00  1.5299610169407691e+00  1.3746057597471977e+00  1.4984862861181429e+00  1.6168294379072081e+00  1.2770502141013824e+00  1.0761316812172661e+00  1.6427359810592785e+00  1.0627141096881367e+00  1.4620941132963263e+00  1.5003626963141494e+00  1.6303003866564494e+00  8.2726457643185536e-01  1.6083243111108141e+00  1.6331164966101634e+00  1.6440055320243525e+00  1.6239744518945431e+00  1.3507046906465556e+00  1.4543973577753304e+00  1.3498729128711637e+00  1.1872450571356927e+00  1.2419575931112292e+00  4.9146403402445027e-01  1.4168320716606588e+00  1.3484408288763947e+00  1.5348667121273465e+00  4.9776009926348569e-01  3.7858975567872771e-01  1.1906830172112184e+00  1.2977469148609126e+00  1.5366553130874667e+00  5.4340562607301168e-01  9.3985013899225778e-01  1.5302098482019177e+00  1.4893128446570558e+00  1.4154813660107839e+00  5.4059918953019992e-01  8.3013765350705593e-01  7.0423525177831769e-01  4.7477672127233661e-01  1.6127284759808238e+00  1.1427814450704141e+00  1.3688288456823834e+00  1.5518649828953268e+00  1.2121147772777527e+00  1.2800496612693339e+00  1.4597729766345040e+00  1.6303274322857908e-01  1.6335879187995901e+00  1.6130640590991037e+00  1.6469341259956918e+00  1.6388711687697270e+00  1.5126272438433186e+00  1.4106441932978266e+00  4.0776037747744792e-01  1.6449302452076970e+00  1.4478905143870107e+00  1.5301112822526379e+00  8.6980333595845138e-01  6.9403286395049568e-01  1.0855707990531980e+00  5.0994551155743029e-01  6.6324458428900956e-01  6.9607541428817155e-01  1.3667109897114111e+00  5.3865314730437852e-01  1.8509369153474098e-01  1.6111140300537419e+00  1.9663728679981082e-01  1.3883761103782928e+00  1.6459349042358837e+00  1.0764930541616877e+00  1.0034258032916312e+00  1.4478208779161386e+00  1.6359911596888204e+00  9.8506411949036643e-01  1.6084764837177563e+00  1.7608627758349563e-01  4.0480102974471094e-01  2.8340079998021267e-01  1.0764722170049155e+00  9.9242411399431862e-01  1.1238030230233884e+00  1.6381015244779876e-01  8.6100408533042427e-01  1.3200538692542050e+00  3.6559089150857255e-01  1.5888078446326690e+00  1.9012239742195991e-01  5.2680181319322028e-01  7.6482626133886877e-01  6.5967020469766491e-01  4.9979172211626449e-01  1.5007044271662680e+00  1.25765