<?xml version="1.0"?>
<VTKFile type="UnstructuredGrid"  version="0.1"  >
<UnstructuredGrid>
<Piece  NumberOfPoints="2513" NumberOfCells="4852">
<Points>
<DataArray  type="Float64"  NumberOfComponents="3"  format="ascii">-1 1 0  -1 -1 0  1 -1 0  1 1 0  0 -1 0  1 0 0  0 1 0  -1 0 0  0 0 0  -1 -0.5 0  -0.5 -1 0  -0.5 1 0  -1 0.5 0  1 -0.5 0  0.5 -1 0  1 0.5 0  0.5 1 0  0.4166666666666666 -0.4166666666666667 0  -0.4166666666666667 0.4166666666666667 0  -0.25 -0.5 0  0.5 0.25 0  -0.4861111111111112 -0.06944444444444445 0  0.0732758620689655 0.507183908045977 0  -0.625 -0.625 0  0.625 0.625 0  0.7380952380952381 -0.25 0  -0.7099116161616161 0.2105429292929293 0  -0.25 0.7380952380952381 0  0.105392156862745 -0.6348039215686275 0  0.6770833333333334 -0.6770833333333333 0  -0.6770833333333334 0.6770833333333334 0  0.3472222222222222 -0.06944444444444446 0  -0.7264957264957265 -0.3044871794871795 0  0.3141940982507127 0.7297313660835709 0  0.02049587951122483 -0.3227479397556124 0  -0.2690972222222223 0.1475694444444444 0  0.3859500089908372 -0.7274430156831472 0  -0.2228477945123298 -0.1761765495248019 0  0.2182539682539683 0.1884920634920635 0  0.75 0.375 0  -0.145442219440968 -0.7602211097204841 0  0.7088913690476191 0.0427827380952381 0  -0.75 -1 0  -1 -0.75 0  1 0.75 0  0.75 1 0  -0.7439982703698937 -0.04614153195464455 0  -0.4609235096577606 -0.3356498099556895 0  0.4063134471431929 0.4895621842856023 0  0.25 -1 0  -0.25 -1 0  -0.75 1 0  0.75 -1 0  -1 -0.25 0  -1 0.25 0  1 -0.25 0  -0.25 1 0  1 -0.75 0  -1 0.75 0  0.25 1 0  1 0.25 0  -0.4041423272138783 -0.7597141090712928 0  0.06500839607911253 0.7578103030529481 0  -0.1572801182352047 0.3838997021864289 0  -0.6528005242053915 0.4409494757946086 0  -0.4930160984848485 0.1544744318181818 0  -0.4732142857142858 0.7752976190476191 0  0.6398809523809523 -0.4538690476190476 0  0.5166054117396399 -0.2161233620965164 0  -0.002273787244753427 0.2232363985975174 0  0.1500564496765022 -0.1524955293952667 0  0.2016720420046758 -0.4410343282803009 0  -0.08495178036419618 0.6274139771124571 0  -0.8367311471133162 0.3642591720794645 0  -0.8333333333333334 -0.625 0  -0.594323836800685 -0.8231079456002283 0  -0.4466957714776065 -0.5349126855671806 0  0.8125 0.5625 0  0.78125 0.78125 0  0.5091392650016769 0.7947130883338923 0  0.125 -0.8382681931833136 0  -0.8184523809523809 -0.8184523809523809 0  -0.07781530426104531 -0.5819319697006881 0  0.5085055196703295 0.04967610411902112 0  0.2918471072074933 -0.276017202318847 0  0.5120763537765269 -0.5898771553229597 0  0.625 -0.8585349462365591 0  0.8158532234335381 -0.8158532234335381 0  -0.5198088446315396 0.5739411553684605 0  -0.8585349462365591 0.625 0  -0.8150493805516597 0.8156205699829586 0  0.8585349462365591 -0.625 0  -0.2688268348649726 0.5439331383603209 0  0.8242100426758139 -0.4436043596336612 0  0.5833756314287952 0.4479378157143976 0  0.8690476190476191 -0.125 0  -0.125 0.8690476190476191 0  -0.8692745600729823 0.125 0  0.8696725120759167 0.125 0  -0.625 0.8711516477451908 0  0.2339522463269718 0.3879558377955778 0  0.2453709502295031 0.5655822922838026 0  0.1730610651637797 0.02021709580868947 0  0.3245402594056757 -0.5644672020485209 0  -0.7291666666666666 -0.4816595441595442 0  -1 -0.375 0  -0.5811140848639904 -0.2127276307675001 0  0.673332592838314 0.2158348143233718 0  0.375 1 0  -0.5714768890989919 0.2985103444040069 0  -1 -0.125 0  -0.8453692574786325 -0.1875 0  -0.3144549134065865 -0.02408675326008025 0  -0.2898414972096258 -0.3336092734780093 0  -0.1075052092206287 -0.4224330421314983 0  -0.05043970703604117 -0.1652278959397459 0  0.6459672950297897 -0.1113415301525317 0  0.4645210271029513 0.6398480556579343 0  0.3512863754411909 0.0937979496253573 0  -0.6063160985568274 0.03891469652249891 0  -0.3428819444444445 0.8690476190476191 0  0.625 1 0  -0.1602164796159982 0.02697860906625157 0  0.04648110064133829 -0.4808416424239687 0  1 0.875 0  -0.3836102479201657 0.6484936449177356 0  -0.3776011723096096 0.263078478984336 0  -0.6024978259969829 -0.3949628096211138 0  0.125 1 0  0.2010781308272777 0.8456221018461906 0  0.2822509696388829 -0.845902544691141 0  -0.3285533674953515 -0.6289773550938936 0  0.3461306793221754 0.278777492464833 0  0.4737475672408696 -0.8508448959534423 0  0.2384632828836344 -0.7029523187242811 0  -0.004777287059791593 0.3759269695907358 0  -0.8499735021850066 -0.3912320205328522 0  0.1222536293721587 0.2963971539625205 0  -0.3769456520999688 -0.203572526805711 0  -0.2749617205755651 -0.8464290792698902 0  0.004805888512766143 -0.747174355248311 0  -0.125 -1 0  -0.06001061822252458 -0.8724007765244854 0  0.875 0.4375 0  0.854421179608893 0.271342359217786 0  0.875 1 0  -0.1499861095763589 0.2358309656934888 0  0.3381943639137225 0.8663061796405532 0  -0.7853090110442228 0.4998412775277108 0  0.7398165998560814 -0.5535192694951373 0  0.1580042122341573 -0.3100246140259917 0  -0.7291666666666667 -0.7142857142857142 0  -0.375 -1 0  0.6483368386154684 0.8514905990110488 0  -0.1295370103291928 -0.2826118305021242 0  0.07458201853700455 0.1123894386563915 0  0.6146465857036327 -0.3161203659316075 0  0.5551898493894731 -0.740296118159085 0  0.375 -1 0  0.482702798370208 -0.084133350091034 0  0.87890625 0.68359375 0  -0.05917195534525846 0.4971092425697621 0  0.1260710309213975 0.6343750312956699 0  0.8690476190476191 -0.3077066815262848 0  -0.2912010232560567 0.3668168386732139 0  -0.875 1 0  -1 0.875 0  1 -0.875 0  0.875 -1 0  -0.8689564281364567 -0.006189266075306407 0  -0.7449425635110547 0.08458938160051771 0  -0.7150266761936593 -0.1739444581417552 0  -0.5260034831318311 -0.711099823962112 0  -0.4724626808827322 -0.871722230709409 0  0.4734436795977052 0.377714794132168 0  -0.875 -1 0  -1 -0.875 0  0.6927189078571988 0.5156567235715964 0  -0.3742497615796874 -0.4296005251260107 0  -0.1969436423297711 -0.6387157229772615 0  -0.6179496409766825 -0.08933356056510935 0  -0.424405057115988 0.04452428810878029 0  -0.08479048335844169 0.1279607007132633 0  0.003830300099055113 0.8712085230656206 0  0.8748778838820267 -1.379218479898026e-05 0  -0.375 1 0  -0.625 1 0  1 0.125 0  -0.125 1 0  1 -0.375 0  1 -0.125 0  1 -0.625 0  0.625 -1 0  0.125 -1 0  -0.625 -1 0  -1 -0.625 0  -1 0.125 0  -1 0.375 0  -1 0.625 0  1 0.375 0  1 0.625 0  0.6325660748712082 0.3335187599557389 0  -0.06420945895056573 0.7549874027425891 0  -0.8769015540914771 0.2478802253893416 0  0.871875 0.871875 0  -0.6868091492840067 0.3270978624973681 0  -0.5363597469565949 0.412994850055505 0  -0.6803734992638302 0.5574295000651103 0  -0.7076253581162534 -0.8803439094224437 0  -0.8778089002295137 -0.5106896447504627 0  -0.3860184984222981 0.530566778071246 0  0.6109900617121508 0.1128453077697081 0  0.3896945134930274 -0.1915382873255086 0  0.7605656944697778 -0.06822134873122943 0  0.3576151269893478 0.5948388411612135 0  -0.5689902680792265 -0.5143596830118065 0  0.6262446286847614 -0.5735657901943212 0  0.2030558252325225 -0.5625263842513452 0  0.6123273142928579 0.7407533260723429 0  0.4016460890123554 -0.3042863223111857 0  -0.59039693199147 0.7578418819188018 0  0.7276932493917544 -0.3705808024528924 0  0.5222536818742854 -0.4713886230400014 0  -0.5101986527137737 0.8848365765607674 0  0.510560172809238 0.5356013299918891 0  -0.3603569195756083 0.75823710606415 0  0.1967279277813232 0.728226870058472 0  -0.6086880986371127 0.1545624071548516 0  -0.38105366729386 0.1511189987807864 0  -0.2944659463671584 -0.7359061804869591 0  0.5060729154966499 -0.3475227845833823 0  -0.09281616240412746 -0.06197858250969457 0  0.7649739583333334 0.6673177083333334 0  0.7628906249999999 0.890234375 0  -0.2666864184909611 0.2585504071132311 0  0.3635064892129658 0.3878003602709461 0  -0.2339409722222222 0.8901937905844155 0  -0.1718792125974916 -0.8957733325456778 0  0.1001768566329531 0.4023510017391879 0  0.3120260172693757 -0.4540546875576884 0  0.7804062804433681 0.1896628610854537 0  0.4087715451998049 0.187961780041608 0  -0.1584963477271457 0.5451611892421655 0  -0.8926817849258324 0.463022006336401 0  0.2338091473445219 -0.07576267331277289 0  0.08171112182813692 -0.2349087687359925 0  0.04635385178956847 -0.1044635073718474 0  -0.4377391632114205 -0.6448874471423088 0  -0.1907678351227189 0.6480215912813945 0  0.300605946475244 0.4741444604171038 0  -0.2145033720757486 -0.06751709909419711 0  0.6069191921170397 -0.005492331448357812 0  0.0214718770761248 0.6032397936031719 0  0.5476675683364878 0.8992752415326501 0  0.4387475014316537 0.9093708953002239 0  -0.4932997685306436 -0.4381009159993523 0  0.2515197695339056 -0.1791673369138964 0  -0.7291666666666667 -0.6088789682539681 0  -0.9166666666666667 -0.6875 0  0.620579540363709 -0.2122431523583302 0  -0.484950136419973 0.6719440339397442 0  0.2857044415400258 0.0137589173127316 0  -0.8945708364098356 -0.288306105327986 0  0.4043102720140535 0.7842914560451557 0  0.04123256238752064 -0.9026968245801402 0  0.2003676884403109 -0.9091888601740487 0  0.1068775558538842 -0.7373377130403223 0  -0.4804566783514427 -0.1763307203045643 0  0.108286342087769 -0.3993789328997278 0  -0.191883080105361 -0.3640821726430649 0  -0.07025064492006244 0.2984876656890053 0  -0.7039324641409584 0.788312126296613 0  -0.7311286585775438 0.8932502354831682 0  0.5171409396884947 0.1503852691889257 0  0.4229392823658633 -0.003216522184234835 0  -0.5621736087218259 -0.919558629836806 0  -0.626474064879544 -0.7266572613636506 0  0.2446828746617422 0.2867616783302419 0  0.1759429608742923 0.4776611759306416 0  -0.3468240303741654 -0.5260416435617549 0  -0.7465808808425306 0.4069574477998361 0  -0.7819962170660292 0.2802441065650652 0  -0.3742623214119594 -0.8547800509641984 0  0.1014498009713561 0.8506721983266377 0  0.4285217620918213 -0.5230190595570253 0  0.4091738370487775 -0.6256346204225141 0  0.78125 0.46875 0  0.90625 0.53125 0  -0.4791801348852565 0.2553992655702126 0  0.7843318610782772 -0.7086046956885941 0  0.8909728264971901 -0.7355183796514634 0  0.7041908166528879 -0.7830649143180282 0  0.7311821352
[...]
<PointData  Scalars="velocity-2"> 
<DataArray  type="Float64"  Name="velocity-2"  format="ascii">0.0000000000000000e+00  0.0000000000000000e+00  0.0000000000000000e+00  0.0000000000000000e+00  0.0000000000000000e+00  1.5163311115962437e+00  0.0000000000000000e+00  1.5162823572540356e+00  1.5151293587354051e+00  1.1356366755031273e+00  0.0000000000000000e+00  0.0000000000000000e+00  1.1350024672454675e+00  1.1357812492778638e+00  0.0000000000000000e+00  1.1353821157244635e+00  0.0000000000000000e+00  1.2521499847117306e+00  1.2519659590472829e+00  1.1362345441221824e+00  1.4212807463664592e+00  1.5088824907072527e+00  1.1239803476259329e+00  9.2125887763373782e-01  9.2162729601045512e-01  1.4216272651811079e+00  1.4487499302167335e+00  6.8753584725087080e-01  9.0264988731850393e-01  8.1867527433935239e-01  8.1897485934643677e-01  1.5084525046913939e+00  1.3756887293257269e+00  7.0651007487119244e-01  1.3577066603063368e+00  1.4831302620543383e+00  7.1144537939838615e-01  1.4679279958019285e+00  1.4619067157109067e+00  1.3015628553304088e+00  6.3737551642349122e-01  1.5130807004636588e+00  0.0000000000000000e+00  6.6147608911434219e-01  6.6172711818954244e-01  0.0000000000000000e+00  1.5130134081223638e+00  1.3440625370551977e+00  1.1504433815692010e+00  0.0000000000000000e+00  0.0000000000000000e+00  0.0000000000000000e+00  0.0000000000000000e+00  1.4215803222989496e+00  1.4216361489688727e+00  1.4215268474403280e+00  0.0000000000000000e+00  6.6152127962043150e-01  6.6146901756268606e-01  0.0000000000000000e+00  1.4218372919384905e+00  6.3921182507602314e-01  6.4319360096076494e-01  1.2920000825023616e+00  1.2199054101623972e+00  1.4792317277993605e+00  6.0286008490263387e-01  1.2019208008742772e+00  1.4459527468724152e+00  1.4406531894490950e+00  1.4804564070418300e+00  1.2199717957631422e+00  9.1676862788213975e-01  1.3146096787834594e+00  9.2166251743782057e-01  4.8692406334874117e-01  1.0805857621547468e+00  1.0343469334855206e+00  5.8869626085777194e-01  5.5631252109068630e-01  4.4884907287871495e-01  4.9929631045291867e-01  1.0004395393183303e+00  1.5122193597873430e+00  1.4004056328369205e+00  9.8591718632418346e-01  3.9717946926269676e-01  5.0567828368847856e-01  1.0140230860563859e+00  9.2144438810660045e-01  5.0592830014883416e-01  9.2179006880784831e-01  1.0658498445371476e+00  1.2165379216143251e+00  1.2099033590685495e+00  1.4921418748470168e+00  3.6942158980784606e-01  1.4925962961986856e+00  1.4923198693825948e+00  3.6399464078461691e-01  1.2868729479860099e+00  1.0288979305815145e+00  1.5154698400681206e+00  1.0307753480875670e+00  1.1629590048509384e+00  1.3025625997299188e+00  1.4482906881520241e+00  1.4453703162116693e+00  0.0000000000000000e+00  1.3803019625952493e+00  1.4928422689150425e+00  1.4626058508160020e+00  1.5142004596652900e+00  1.3471120128641694e+00  1.2442202489983785e+00  1.4750472723397574e+00  1.4969173693743969e+00  8.9310955030546679e-01  1.5024791497187271e+00  1.5135491163021191e+00  3.6900126723592402e-01  0.0000000000000000e+00  1.5157595198254687e+00  1.1635425108749229e+00  3.5422370509413070e-01  8.7616582586337266e-01  1.4103870117209720e+00  1.2790394857745002e+00  0.0000000000000000e+00  4.3053000555238469e-01  4.2936870785726289e-01  9.1422577396342941e-01  1.3982160603836746e+00  4.1715639819717326e-01  7.6410186983649098e-01  1.3014148549072611e+00  1.2830402759579778e+00  1.3829973960875608e+00  1.4525203771772495e+00  4.2860106369396916e-01  6.6753185669376625e-01  0.0000000000000000e+00  3.6067584033003064e-01  1.2247112311343422e+00  1.4046143162320683e+00  0.0000000000000000e+00  1.4319832271262758e+00  3.7689331040175061e-01  1.1358197519792976e+00  1.0491105767108022e+00  1.3702091953739928e+00  7.4039448992022427e-01  0.0000000000000000e+00  4.1452012413514872e-01  1.3949482883338997e+00  1.4967655829002968e+00  1.3645609276898976e+00  6.8274722666454513e-01  0.0000000000000000e+00  1.5049504798939026e+00  8.0543833688267641e-01  1.1398980438150266e+00  9.0349470308799140e-01  1.3723532024154050e+00  1.3114560813944069e+00  0.0000000000000000e+00  3.5476810872175440e-01  3.5423901055227619e-01  0.0000000000000000e+00  1.5159810947860157e+00  1.5041588957795786e+00  1.4698292366711196e+00  7.4647645660177653e-01  3.6271510049367345e-01  1.2980326002056433e+00  0.0000000000000000e+00  3.5432667876393314e-01  1.1113030879347983e+00  1.2352500760173342e+00  8.9534630553849281e-01  1.5040587210329073e+00  1.5125808074075486e+00  1.4910503534139024e+00  3.6461422489317086e-01  1.5157500689274201e+00  0.0000000000000000e+00  0.0000000000000000e+00  1.4929569773201474e+00  0.0000000000000000e+00  1.3024797148928948e+00  1.4928231817115947e+00  9.2152758010854496e-01  0.0000000000000000e+00  0.0000000000000000e+00  0.0000000000000000e+00  9.2166691578097670e-01  1.4925671045104525e+00  1.3023195476535407e+00  9.2202690688340994e-01  1.3027211652880804e+00  9.2176713101998908e-01  1.3471619691200820e+00  6.4972899916638160e-01  1.4232182245112914e+00  3.6166250255220705e-01  1.3536379005162422e+00  1.2565059203128051e+00  1.0428375374688585e+00  3.4071232626223558e-01  1.1189925498884512e+00  1.0870313213033780e+00  1.4966128232801059e+00  1.4607434245785316e+00  1.5087994986039905e+00  9.7696901350949261e-01  1.1131853459665226e+00  1.0147372308549567e+00  1.0338378452514396e+00  6.8201102079639142e-01  1.3755281221885323e+00  6.4329766913221509e-01  1.3068303959344900e+00  1.1782151328378989e+00  3.2825691149930525e-01  1.0788515932540048e+00  6.4277245915193959e-01  7.1015012221827545e-01  1.4794305470121236e+00  1.4813785229918390e+00  6.9278236517209790e-01  1.3325928992922380e+00  1.5104148819905288e+00  8.3863489321059259e-01  3.1308111171252090e-01  1.4143637623461554e+00  1.2873317054169033e+00  3.1335100749687839e-01  2.9778534671320095e-01  1.2696601299955392e+00  1.2017063811881512e+00  1.4611262667891116e+00  1.4622589647707904e+00  1.0635527733976919e+00  1.1893342243674696e+00  1.5072965133579304e+00  1.4327256882328452e+00  1.4994353720501004e+00  8.8392268260516460e-01  8.7686577985285052e-01  1.1731092295290599e+00  1.5084128384766164e+00  1.5165564959880014e+00  9.6204315546837604e-01  2.8926790147173981e-01  2.6145779167573913e-01  1.2239893957657546e+00  1.4668781413012906e+00  9.5206495948533965e-01  7.9705247548878710e-01  1.4477233248661963e+00  8.2934943776919645e-01  1.5155422090499289e+00  1.3899553461727345e+00  5.8188727068854307e-01  2.7899795273426231e-01  2.6123714062890724e-01  6.8924562889201590e-01  1.4688143609632152e+00  1.2728877733994586e+00  1.3146214045454627e+00  1.3808204077839115e+00  5.7204542255030599e-01  3.0534965128734282e-01  1.4818020140887833e+00  1.5158064686370392e+00  2.3301177557415581e-01  7.1359493640250249e-01  1.3909281948340064e+00  1.1685165925792873e+00  1.0946017731268358e+00  1.2642342026766220e+00  1.3964326122872937e+00  4.0642476835073055e-01  4.1747498607514694e-01  1.0997758239036162e+00  9.2010907433003464e-01  1.1824355574387178e+00  1.0865735849144063e+00  1.4171201367500288e+00  7.5311822863063416e-01  6.9355571361441193e-01  5.8417842908470707e-01  3.1211344085959858e-01  5.1329967471089977e-01  7.4292373377301857e-01  7.5340521636879032e-01  1.2081824097267790e+00  2.4514720548110899e-01  3.3099189193488449e-01  5.8156667841060805e-01  7.2407644669735305e-01  2.5022075055516002e-01  3.0726335002169880e-01  8.7479352920948517e-01  8.7054781442984641e-01  4.8097307679280421e-01  8.0367517492883744e-01  1.0068232159014294e+00  1.0593964903538806e+00  9.7950697796481523e-01  1.4659625563236174e+00  1.4558012716130839e+00  1.5001294292657692e+00  1.2023922689696989e+00  1.0494218627376695e+00  2.0612549769840782e-01  1.0975660526815907e+00  1.2782408528266909e+00  5.9684999682735895e-01  9.4062452437436994e-01  1.1460641626671435e+00  1.1097675401077811e+00  1.3238599514411009e+00  1.3973723524296209e+00  1.5084969636523424e+00  8.5660875270217873e-01  1.5019904861740867e+00  5.9764292080379333e-01  7.8319481262294410e-01  1.4940334317355395e+00  1.3799133943252300e+00  1.1909381602339335e+00  2.0008610477376965e-01  1.4760151655490819e+00  1.5027079586970538e+00  1.4453516961003541e+00  1.2247029266079454e+00  1.5148220257915859e+00  1.2509605057087843e+00  1.0773807256041321e+00  8.6052458389743913e-01  1.9092500429254983e-01  1.4745938806687913e+00  1.5104088622722764e+00  1.5106203267512990e+00  1.4639062429061720e+00  1.4834010380307505e+00  1.9661925699544455e-01  7.5963443906069150e-01  1.9319870457422159e-01  1.3679149730539879e+00  1.9128716564340481e-01  8.8132497514170371e-01  1.5103679695549335e+00  1.8636741002015764e-01  1.2819149988908294e+00  1.0629231604353704e+00  1.0626936989109466e+00  5.1076616079154347e-01  1.3677160397358035e+00  1.5100304013471966e+00  1.5102606730317569e+00  1.5100235783255476e+00  1.8307624465229816e-01  2.3344459623148153e-01  1.9153120867774995e-01  1.4886112342732580e+00  1.4472442592959507e+00  1.0654719000715120e+00  6.0278522622188213e-01  1.8416144697804809e-01  8.1582372934243430e-01  1.3080901338316009e+00  7.8741458470756232e-01  1.5145980954242986e+00  1.4658942913721893e+00  5.6093475239235613e-01  6.9604843347532175e-01  1.5141741131520432e+00  1.4907558193315380e+00  1.3337680383031232e+00  1.4288764852778157e+00  1.9047805327632766e-01  1.4129528310300952e+00  1.2461844947078378e+00  1.3366430485087872e+00  1.4061578923824540e+00  1.2800577334480596e+00  1.4991980760070662e+00  1.4311268946616613e+00  8.4945906765743628e-01  5.5352183911241992e-01  1.4066501692827851e+00  1.4366681826132979e+00  9.8660992531072633e-01  1.3214224944138793e+00  9.8294181553963544e-01  1.4486779796992562e+00  1.4842861658554334e+00  1.4678957233792860e+00  1.3545039393558325e+00  1.5140315606331871e+00  7.7171193606352306e-01  2.8543142342581901e-01  1.3550484420342959e+00  4.1773515938163341e-01  1.3509187310078432e+00  1.1453742338768425e+00  1.2612203313623800e+00  1.3394105183893454e+00  1.0501865899503504e+00  1.4440201380368440e+00  1.4148792738409672e+00  1.3059048105769033e+00  1.1808384937425944e+00  1.4919704664053259e+00  0.0000000000000000e+00  1.5135664031604217e+00  1.5047643565439082e+00  1.2124695605484963e+00  1.2011197512457976e+00  5.8005253264359324e-01  1.5157430099902949e+00  1.5012505320188123e+00  9.0184577181387282e-01  1.1863617304368046e+00  1.3561352674169191e+00  9.4590983494198921e-01  1.0303094745858157e+00  0.0000000000000000e+00  1.4205229057510909e+00  1.8469477373207679e-01  5.3289982499724131e-01  1.4933637884913540e+00  4.7351284602789595e-01  2.3296764703075751e-01  9.0372245609799340e-01  1.2645145076653543e+00  1.3334193770999099e+00  2.1142872783962616e-01  1.0489354597196241e+00  4.7730871232228556e-01  6.1124640182450396e-01  1.2887453755412073e+00  1.4513822762182400e+00  6.0978783023667149e-01  1.4521400149809589e+00  1.8408459352392978e-01  1.4103963103923409e+00  1.3375756328945547e+00  5.8954696147823293e-01  9.6135198872898242e-01  8.4476513267321052e-01  1.4905911879469405e+00  5.7096559192764085e-01  5.9358528447664050e-01  9.5875307542265742e-01  0.0000000000000000e+00  1.3653162411511526e+00  0.0000000000000000e+00  9.9163024288584212e-01  1.2681470761557299e+00  1.3179170977191708e+00  1.1112202879529811e+00  1.5157926634803944e+00  1.5017106069338555e+00  1.4374373256056940e+00  1.2190633773361685e+00  1.3794122338027250e+00  0.0000000000000000e+00  2.1383021399978730e-01  9.2106513547154201e-01  1.8274585585431677e-01  7.3410369976760359e-01  1.1866044020934785e+00  4.0733306119993407e-01  1.0258494606733830e+00  7.9443462814962174e-01  6.3880543457897576e-01  3.1688073881307049e-01  0.0000000000000000e+00  4.7144790226812072e-01  4.7709350129715083e-01  5.0946754285512030e-01  1.5127001229828616e+00  0.0000000000000000e+00  9.9266555898871944e-01  8.0133574366971561e-01  1.5141326804083794e+00  1.3698673589019172e+00  1.4625081347052222e+00  1.4400311591363903e+00  1.3682842023631057e+00  1.4559239863525784e+00  1.5150261515370038e+00  6.8823038335956810e-01  1.0959394232492654e+00  8.5203541222159185e-01  1.1219658636852832e+00  1.4949539432214178e+00  1.5018625885839736e+00  0.0000000000000000e+00  9.8729808740567082e-01  2.0936256099768275e-01  2.5505514371501653e-01  1.1744667676506424e+00  1.2301604436189253e+00  1.4268107679209814e+00  2.3957597033308681e-01  7.4514433528444191e-01  1.4681538108266985e+00  1.3190846179410474e+00  1.4236020378507184e+00  1.1773223100522696e+00  1.4775492238804591e+00  1.5073763803791438e+00  1.2243732369443989e+00  1.8766730909433879e-01  2.0157367082237318e-01  2.0603172935975042e-01  1.4495780564587508e+00  5.4660342792520566e-01  1.3041942103104183e+00  1.4957633195447622e+00  1.4725105203535669e+00  1.4366636545351230e+00  9.2343706621016575e-01  1.1180017904133168e+00  4.5880590871867249e-01  1.9506111471868082e-01  1.4799024363055442e+00  1.2251076967771293e+00  1.2953651404705300e+00  1.4125673156727547e+00  1.4079128901687210e+00  1.4023840740440940e+00  1.1814599846605751e+00  1.1358970849043304e+00  1.2900731412694391e+00  1.8411231228622646e-01  0.0000000000000000e+00  1.1448091894382915e+00  1.4951879393876677e+00  1.4990718535695275e+00  1.4507259001504971e+00  5.4734352871986269e-01  2.0628109242829926e-01  1.5156778057525966e+00  7.0026594648270946e-01  7.3251162867873432e-01  1.2998237505158357e+00  1.3488667407393857e+00  6.6271120235512382e-01  5.3557018799612122e-01  8.0116641181901327e-01  8.3774838982414401e-01  1.5045750284019737e+00  6.2407275961781139e-01  8.2309671753634439e-01  8.3399814038459785e-01  1.3780931763246891e+00  9.6912358317306402e-01  9.9276058616729068e-01  1.4161989843078973e+00  1.3682796579815839e+00  7.5361290694990035e-01  1.1902761599065053e+00  3.7606740777278713e-01  1.1291074191535961e+00  1.4671214396903958e+00  1.9676077814896809e-01  4.4369747881855565e-01  1.5135557366622683e+00  4.6878008994605308e-01  5.6933165048081147e-01  4.4874263124869374e-01  8.8515309422423050e-01  1.3415963688619805e+00  1.5160486313853734e+00  5.5299802136533005e-01  1.3959149781238642e+00  1.4412608597162737e+00  1.0940186852851617e+00  1.0853446163802078e+00  6.3467320009596262e-01  1.0413881061198824e+00  1.0348275910205893e+00  1.4224701170199034e+00  1.4525300329872095e+00  1.2626046581247272e+00  1.5154005626039477e+00  9.0423312952580448e-01  1.4917310754459352e+00  1.3960160127212293e+00  4.7033158797911068e-01  1.3340306187011812e+00  7.8011553182655680e-01  1.5051121165848536e+00  8.4426038872611242e-01  1.9418289420776902e-01  3.9874460574409532e-01  5.2004842475427460e-01  6.7058866982313858e-01  1.4901941957722309e+00  1.4629900379883745e+00  1.4833513386011101e+00  1.0172986623878895e+00  1.4092187428065259e+00  1.3678545446804369e+00  1.2432257718999782e+00  1.2790327580786269e+00  1.5097461965878458e+00  0.0000000000000000e+00  1.0900569582674975e+00  9.6220092479596275e-01  7.4218552910992597e-01  6.2191001189265493e-01  8.8445075106230064e-01  7.7426988197991153e-01  1.5148190438742584e+00  5.7622601552044472e-01  1.3323699967395051e+00  9.3158976574350039e-01  1.0101433283386319e+00  1.1714512908726959e+00  0.0000000000000000e+00  5.1353619744720402e-01  4.8714309875183998e-01  7.9756959270500161e-01  7.4211390527540644e-01  7.9046663156092012e-01  1.2721007607384334e+00  1.1817649047417265e+00  1.3714416145004313e+00  1.4128327836279106e+00  7.7764581713937486e-01  0.0000000000000000e+00  1.8513822674633215e-01  4.3431150249055794e-01  1.4962631461070959e+00  5.5394354144802127e-01  1.0625469135703782e+00  1.4717901785813561e+00  1.5060889937594482e+00  7.5997860468817546e-01  1.1275943546825935e+00  8.4230569305411651e-01  2.9393553179812504e-01  1.4372750288575242e+00  1.3512973246498228e+00  1.5104395966255701e+00  1.5153761985767842e+00  2.5637808956789809e-01  7.9884345235087451e-01  1.9388035293712319e-01  1.5163129464585117e+00  2.5093102025495612e-01  1.4205070460759388e+00  1.0343679155639560e+00  7.9750483414248408e-01  0.0000000000000000e+00  0.0000000000000000e+00  0.0000000000000000e+00  1.8306352620681030e-01  0.0000000000000000e+00  0.0000000000000000e+00  1.3683514649209423e+00  5.1399738140349593e-01  0.0000000000000000e+00  0.0000000000000000e+00  1.3680928594620987e+00  0.0000000000000000e+00  0.0000000000000000e+00  1.5101666955997002e+00  1.5099062299517412e+00  1.4629871260516421e+00  1.4629694879219095e+00  1.5101805755206497e+00  1.5103734635069510e+00  0.0000000000000000e+00  1.2250843436111387e+00  0.0000000000000000e+00  0.0000000000000000e+00  1.0341348266574566e+00  0.0000000000000000e+00  0.0000000000000000e+00  5.1350375616410704e-01  0.0000000000000000e+00  0.0000000000000000e+00  7.9741946762162108e-01  0.0000000000000000e+00  5.1360904866906232e-01  1.8409051947899055e-01  0.0000000000000000e+00  1.4631802239195917e+00  0.0000000000000000e+00  1.0345527129270129e+00  0.0000000000000000e+00  1.2249257535582689e+00  7.9729801852473769e-01  1.1166861185921431e+00  1.2614777797921517e+00  4.3523597267330871e-01  1.1363957002017475e+00  1.1183095412918165e+00  1.2865050383105323e+00  1.2856920946725638e+00  1.2114652457491755e+00  1.0549869783426589e+00  1.0302372738370162e+00  1.2608059357674477e+00  1.5879886532603230e-01  1.0880497770184800e+00  9.3465057078079139e-01  1.1976510461496137e+00  1.4630696784089858e+00  1.3787596831457218e+00  1.4250145319739493e+00  1.5090666841853848e+00  1.6035108407686927e-01  1.0225422254882230e+00  1.2084613632796211e+00  1.4982749966556070e+00  1.5160557474847145e+00  1.2845433631790857e+00  1.5087226566012273e+00  1.4913685935089229e+00  1.4394215428628958e+00  1.2749596172613189e+00  1.5101729179340730e+00  1.4294311078640582e+00  1.1186434420211897e+00  1.4794048197757830e+00  1.5047001373439550e+00  8.0667135856241690e-01  1.4684231692624796e+00  1.4025128974631007e+00  1.2558934046918198e+00  1.3721411109740635e+00  1.4861975817662507e+00  1.1678310963915044e+00  9.8798798087561890e-01  1.5105724957906637e+00  9.7626490687991996e-01  1.3374698463315546e+00  1.3743772581302431e+00  1.4993130666538861e+00  7.6422334424523664e-01  1.4780916750197104e+00  1.5016630866810787e+00  1.5119344628132374e+00  1.4928473003821390e+00  1.2342130778454059e+00  1.3302949172484679e+00  1.2335258829876403e+00  1.0863904413177028e+00  1.1355395178018772e+00  4.5703534003310570e-01  1.2948951987675550e+00  1.2315611809199276e+00  1.4078623642747636e+00  4.6262244525984653e-01  3.5291337854034999e-01  1.0905662891750438e+00  1.1859112441458719e+00  1.4091447797837973e+00  5.0521331461835750e-01  8.6609279385871740e-01  1.4034882962248405e+00  1.3639357233999057e+00  1.2937883915964827e+00  5.0235830605795206e-01  7.6695190297707894e-01  6.5203362468950810e-01  4.4146557718171114e-01  1.4828126048544665e+00  1.0480533706975339e+00  1.2508641518651256e+00  1.4238485304795889e+00  1.1093999144861715e+00  1.1698407236739041e+00  1.3356661269886134e+00  1.5242828007156506e-01  1.5022907905972733e+00  1.4828199504032282e+00  1.5150155673307999e+00  1.5069392595089632e+00  1.3861367038704602e+00  1.2894725060764340e+00  3.7983699122249814e-01  1.5130743898788008e+00  1.3241829308049913e+00  1.4031432763131564e+00  8.0340521447511704e-01  6.4311505797207025e-01  9.9655769954838036e-01  4.7388576366877261e-01  6.1478835119290143e-01  6.4502267411233627e-01  1.2487537753980764e+00  5.0056021680049645e-01  1.7295138275175992e-01  1.4807630599032611e+00  1.8375049681021188e-01  1.2685436620800850e+00  1.5140579605002529e+00  9.8846535565778948e-01  9.2334971750906403e-01  1.3242289343660605e+00  1.5043886716198582e+00  9.0679999016413093e-01  1.4779183128445312e+00  1.6449455242503136e-01  3.7666170547100580e-01  2.6425116619370759e-01  9.8854022546618980e-01  9.1323040021971003e-01  1.0306071064929607e+00  1.5305418823973618e-01  7.9520023221534697e-01  1.2060411150938826e+00  3.4040179869078463e-01  1.4592392434643282e+00  1.7754402433925326e-01  4.8930558523910056e-01  7.0806286318499689e-01  6.1175258167875812e-01  4.6458619619656072e-01  1.3746896859851918e+00  1.14973