<?xml version="1.0"?>
<VTKFile type="UnstructuredGrid"  version="0.1"  >
<UnstructuredGrid>
<Piece  NumberOfPoints="2513" NumberOfCells="4852">
<Points>
<DataArray  type="Float64"  NumberOfComponents="3"  format="ascii">-1 1 0  -1 -1 0  1 -1 0  1 1 0  0 -1 0  1 0 0  0 1 0  -1 0 0  0 0 0  -1 -0.5 0  -0.5 -1 0  -0.5 1 0  -1 0.5 0  1 -0.5 0  0.5 -1 0  1 0.5 0  0.5 1 0  0.4166666666666666 -0.4166666666666667 0  -0.4166666666666667 0.4166666666666667 0  -0.25 -0.5 0  0.5 0.25 0  -0.4861111111111112 -0.06944444444444445 0  0.0732758620689655 0.507183908045977 0  -0.625 -0.625 0  0.625 0.625 0  0.7380952380952381 -0.25 0  -0.7099116161616161 0.2105429292929293 0  -0.25 0.7380952380952381 0  0.105392156862745 -0.6348039215686275 0  0.6770833333333334 -0.6770833333333333 0  -0.6770833333333334 0.6770833333333334 0  0.3472222222222222 -0.06944444444444446 0  -0.7264957264957265 -0.3044871794871795 0  0.3141940982507127 0.7297313660835709 0  0.02049587951122483 -0.3227479397556124 0  -0.2690972222222223 0.1475694444444444 0  0.3859500089908372 -0.7274430156831472 0  -0.2228477945123298 -0.1761765495248019 0  0.2182539682539683 0.1884920634920635 0  0.75 0.375 0  -0.145442219440968 -0.7602211097204841 0  0.7088913690476191 0.0427827380952381 0  -0.75 -1 0  -1 -0.75 0  1 0.75 0  0.75 1 0  -0.7439982703698937 -0.04614153195464455 0  -0.4609235096577606 -0.3356498099556895 0  0.4063134471431929 0.4895621842856023 0  0.25 -1 0  -0.25 -1 0  -0.75 1 0  0.75 -1 0  -1 -0.25 0  -1 0.25 0  1 -0.25 0  -0.25 1 0  1 -0.75 0  -1 0.75 0  0.25 1 0  1 0.25 0  -0.4041423272138783 -0.7597141090712928 0  0.06500839607911253 0.7578103030529481 0  -0.1572801182352047 0.3838997021864289 0  -0.6528005242053915 0.4409494757946086 0  -0.4930160984848485 0.1544744318181818 0  -0.4732142857142858 0.7752976190476191 0  0.6398809523809523 -0.4538690476190476 0  0.5166054117396399 -0.2161233620965164 0  -0.002273787244753427 0.2232363985975174 0  0.1500564496765022 -0.1524955293952667 0  0.2016720420046758 -0.4410343282803009 0  -0.08495178036419618 0.6274139771124571 0  -0.8367311471133162 0.3642591720794645 0  -0.8333333333333334 -0.625 0  -0.594323836800685 -0.8231079456002283 0  -0.4466957714776065 -0.5349126855671806 0  0.8125 0.5625 0  0.78125 0.78125 0  0.5091392650016769 0.7947130883338923 0  0.125 -0.8382681931833136 0  -0.8184523809523809 -0.8184523809523809 0  -0.07781530426104531 -0.5819319697006881 0  0.5085055196703295 0.04967610411902112 0  0.2918471072074933 -0.276017202318847 0  0.5120763537765269 -0.5898771553229597 0  0.625 -0.8585349462365591 0  0.8158532234335381 -0.8158532234335381 0  -0.5198088446315396 0.5739411553684605 0  -0.8585349462365591 0.625 0  -0.8150493805516597 0.8156205699829586 0  0.8585349462365591 -0.625 0  -0.2688268348649726 0.5439331383603209 0  0.8242100426758139 -0.4436043596336612 0  0.5833756314287952 0.4479378157143976 0  0.8690476190476191 -0.125 0  -0.125 0.8690476190476191 0  -0.8692745600729823 0.125 0  0.8696725120759167 0.125 0  -0.625 0.8711516477451908 0  0.2339522463269718 0.3879558377955778 0  0.2453709502295031 0.5655822922838026 0  0.1730610651637797 0.02021709580868947 0  0.3245402594056757 -0.5644672020485209 0  -0.7291666666666666 -0.4816595441595442 0  -1 -0.375 0  -0.5811140848639904 -0.2127276307675001 0  0.673332592838314 0.2158348143233718 0  0.375 1 0  -0.5714768890989919 0.2985103444040069 0  -1 -0.125 0  -0.8453692574786325 -0.1875 0  -0.3144549134065865 -0.02408675326008025 0  -0.2898414972096258 -0.3336092734780093 0  -0.1075052092206287 -0.4224330421314983 0  -0.05043970703604117 -0.1652278959397459 0  0.6459672950297897 -0.1113415301525317 0  0.4645210271029513 0.6398480556579343 0  0.3512863754411909 0.0937979496253573 0  -0.6063160985568274 0.03891469652249891 0  -0.3428819444444445 0.8690476190476191 0  0.625 1 0  -0.1602164796159982 0.02697860906625157 0  0.04648110064133829 -0.4808416424239687 0  1 0.875 0  -0.3836102479201657 0.6484936449177356 0  -0.3776011723096096 0.263078478984336 0  -0.6024978259969829 -0.3949628096211138 0  0.125 1 0  0.2010781308272777 0.8456221018461906 0  0.2822509696388829 -0.845902544691141 0  -0.3285533674953515 -0.6289773550938936 0  0.3461306793221754 0.278777492464833 0  0.4737475672408696 -0.8508448959534423 0  0.2384632828836344 -0.7029523187242811 0  -0.004777287059791593 0.3759269695907358 0  -0.8499735021850066 -0.3912320205328522 0  0.1222536293721587 0.2963971539625205 0  -0.3769456520999688 -0.203572526805711 0  -0.2749617205755651 -0.8464290792698902 0  0.004805888512766143 -0.747174355248311 0  -0.125 -1 0  -0.06001061822252458 -0.8724007765244854 0  0.875 0.4375 0  0.854421179608893 0.271342359217786 0  0.875 1 0  -0.1499861095763589 0.2358309656934888 0  0.3381943639137225 0.8663061796405532 0  -0.7853090110442228 0.4998412775277108 0  0.7398165998560814 -0.5535192694951373 0  0.1580042122341573 -0.3100246140259917 0  -0.7291666666666667 -0.7142857142857142 0  -0.375 -1 0  0.6483368386154684 0.8514905990110488 0  -0.1295370103291928 -0.2826118305021242 0  0.07458201853700455 0.1123894386563915 0  0.6146465857036327 -0.3161203659316075 0  0.5551898493894731 -0.740296118159085 0  0.375 -1 0  0.482702798370208 -0.084133350091034 0  0.87890625 0.68359375 0  -0.05917195534525846 0.4971092425697621 0  0.1260710309213975 0.6343750312956699 0  0.8690476190476191 -0.3077066815262848 0  -0.2912010232560567 0.3668168386732139 0  -0.875 1 0  -1 0.875 0  1 -0.875 0  0.875 -1 0  -0.8689564281364567 -0.006189266075306407 0  -0.7449425635110547 0.08458938160051771 0  -0.7150266761936593 -0.1739444581417552 0  -0.5260034831318311 -0.711099823962112 0  -0.4724626808827322 -0.871722230709409 0  0.4734436795977052 0.377714794132168 0  -0.875 -1 0  -1 -0.875 0  0.6927189078571988 0.5156567235715964 0  -0.3742497615796874 -0.4296005251260107 0  -0.1969436423297711 -0.6387157229772615 0  -0.6179496409766825 -0.08933356056510935 0  -0.424405057115988 0.04452428810878029 0  -0.08479048335844169 0.1279607007132633 0  0.003830300099055113 0.8712085230656206 0  0.8748778838820267 -1.379218479898026e-05 0  -0.375 1 0  -0.625 1 0  1 0.125 0  -0.125 1 0  1 -0.375 0  1 -0.125 0  1 -0.625 0  0.625 -1 0  0.125 -1 0  -0.625 -1 0  -1 -0.625 0  -1 0.125 0  -1 0.375 0  -1 0.625 0  1 0.375 0  1 0.625 0  0.6325660748712082 0.3335187599557389 0  -0.06420945895056573 0.7549874027425891 0  -0.8769015540914771 0.2478802253893416 0  0.871875 0.871875 0  -0.6868091492840067 0.3270978624973681 0  -0.5363597469565949 0.412994850055505 0  -0.6803734992638302 0.5574295000651103 0  -0.7076253581162534 -0.8803439094224437 0  -0.8778089002295137 -0.5106896447504627 0  -0.3860184984222981 0.530566778071246 0  0.6109900617121508 0.1128453077697081 0  0.3896945134930274 -0.1915382873255086 0  0.7605656944697778 -0.06822134873122943 0  0.3576151269893478 0.5948388411612135 0  -0.5689902680792265 -0.5143596830118065 0  0.6262446286847614 -0.5735657901943212 0  0.2030558252325225 -0.5625263842513452 0  0.6123273142928579 0.7407533260723429 0  0.4016460890123554 -0.3042863223111857 0  -0.59039693199147 0.7578418819188018 0  0.7276932493917544 -0.3705808024528924 0  0.5222536818742854 -0.4713886230400014 0  -0.5101986527137737 0.8848365765607674 0  0.510560172809238 0.5356013299918891 0  -0.3603569195756083 0.75823710606415 0  0.1967279277813232 0.728226870058472 0  -0.6086880986371127 0.1545624071548516 0  -0.38105366729386 0.1511189987807864 0  -0.2944659463671584 -0.7359061804869591 0  0.5060729154966499 -0.3475227845833823 0  -0.09281616240412746 -0.06197858250969457 0  0.7649739583333334 0.6673177083333334 0  0.7628906249999999 0.890234375 0  -0.2666864184909611 0.2585504071132311 0  0.3635064892129658 0.3878003602709461 0  -0.2339409722222222 0.8901937905844155 0  -0.1718792125974916 -0.8957733325456778 0  0.1001768566329531 0.4023510017391879 0  0.3120260172693757 -0.4540546875576884 0  0.7804062804433681 0.1896628610854537 0  0.4087715451998049 0.187961780041608 0  -0.1584963477271457 0.5451611892421655 0  -0.8926817849258324 0.463022006336401 0  0.2338091473445219 -0.07576267331277289 0  0.08171112182813692 -0.2349087687359925 0  0.04635385178956847 -0.1044635073718474 0  -0.4377391632114205 -0.6448874471423088 0  -0.1907678351227189 0.6480215912813945 0  0.300605946475244 0.4741444604171038 0  -0.2145033720757486 -0.06751709909419711 0  0.6069191921170397 -0.005492331448357812 0  0.0214718770761248 0.6032397936031719 0  0.5476675683364878 0.8992752415326501 0  0.4387475014316537 0.9093708953002239 0  -0.4932997685306436 -0.4381009159993523 0  0.2515197695339056 -0.1791673369138964 0  -0.7291666666666667 -0.6088789682539681 0  -0.9166666666666667 -0.6875 0  0.620579540363709 -0.2122431523583302 0  -0.484950136419973 0.6719440339397442 0  0.2857044415400258 0.0137589173127316 0  -0.8945708364098356 -0.288306105327986 0  0.4043102720140535 0.7842914560451557 0  0.04123256238752064 -0.9026968245801402 0  0.2003676884403109 -0.9091888601740487 0  0.1068775558538842 -0.7373377130403223 0  -0.4804566783514427 -0.1763307203045643 0  0.108286342087769 -0.3993789328997278 0  -0.191883080105361 -0.3640821726430649 0  -0.07025064492006244 0.2984876656890053 0  -0.7039324641409584 0.788312126296613 0  -0.7311286585775438 0.8932502354831682 0  0.5171409396884947 0.1503852691889257 0  0.4229392823658633 -0.003216522184234835 0  -0.5621736087218259 -0.919558629836806 0  -0.626474064879544 -0.7266572613636506 0  0.2446828746617422 0.2867616783302419 0  0.1759429608742923 0.4776611759306416 0  -0.3468240303741654 -0.5260416435617549 0  -0.7465808808425306 0.4069574477998361 0  -0.7819962170660292 0.2802441065650652 0  -0.3742623214119594 -0.8547800509641984 0  0.1014498009713561 0.8506721983266377 0  0.4285217620918213 -0.5230190595570253 0  0.4091738370487775 -0.6256346204225141 0  0.78125 0.46875 0  0.90625 0.53125 0  -0.4791801348852565 0.2553992655702126 0  0.7843318610782772 -0.7086046956885941 0  0.8909728264971901 -0.7355183796514634 0  0.7041908166528879 -0.7830649143180282 0  0.7311821352
[...]
<PointData  Scalars="velocity-2"> 
<DataArray  type="Float64"  Name="velocity-2"  format="ascii">0.0000000000000000e+00  0.0000000000000000e+00  0.0000000000000000e+00  0.0000000000000000e+00  0.0000000000000000e+00  1.5077464334529962e+00  0.0000000000000000e+00  1.5076987101200321e+00  1.5065663125612041e+00  1.1293792181141356e+00  0.0000000000000000e+00  0.0000000000000000e+00  1.1287395959765474e+00  1.1295249355663846e+00  0.0000000000000000e+00  1.1291236311293655e+00  0.0000000000000000e+00  1.2444657970384840e+00  1.2442915457639012e+00  1.1299306183038336e+00  1.4120870353598280e+00  1.5002351998875818e+00  1.1178031370163375e+00  9.1714614914215575e-01  9.1750917760042405e-01  1.4124646755272521e+00  1.4396627467968697e+00  6.8494708643361968e-01  8.9869327297590462e-01  8.1530632738709796e-01  8.1564415789131728e-01  1.4997730585828157e+00  1.3667052845627008e+00  7.0381516683962630e-01  1.3488254914861055e+00  1.4741827877962204e+00  7.0871705406583629e-01  1.4589263595686601e+00  1.4528211612704724e+00  1.2932464618827455e+00  6.3503285813852584e-01  1.5044785931231213e+00  0.0000000000000000e+00  6.5904006711233698e-01  6.5928862839812330e-01  0.0000000000000000e+00  1.5044179150214756e+00  1.3353371036031796e+00  1.1439858059414001e+00  0.0000000000000000e+00  0.0000000000000000e+00  0.0000000000000000e+00  0.0000000000000000e+00  1.4124409315883126e+00  1.4124939812964379e+00  1.4123878492897524e+00  0.0000000000000000e+00  6.5908292367319032e-01  6.5902647630497824e-01  0.0000000000000000e+00  1.4127025598044483e+00  6.3685761590950807e-01  6.4084416037702885e-01  1.2837260362917260e+00  1.2126402888677159e+00  1.4703009026161113e+00  6.0073906088398821e-01  1.1948506137058115e+00  1.4368917923319191e+00  1.4315239063972156e+00  1.4715147668124058e+00  1.2126243135688917e+00  9.1265971033179161e-01  1.3061268723926360e+00  9.1755602435130634e-01  4.8529491513506184e-01  1.0749769037715247e+00  1.0292224592431816e+00  5.8660748247351169e-01  5.5433752369865519e-01  4.4734201426622311e-01  4.9761329010060945e-01  9.9558918696196574e-01  1.5035902103999730e+00  1.3912817674310314e+00  9.8122596552522889e-01  3.9587185111986645e-01  5.0395459109344232e-01  1.0090584145504464e+00  9.1736232087763614e-01  5.0416274258671212e-01  9.1768184330049896e-01  1.0604076398879270e+00  1.2092785696858774e+00  1.2027678384598890e+00  1.4832887689815275e+00  3.6822950612992106e-01  1.4838047870050393e+00  1.4834746379157369e+00  3.6283848937005508e-01  1.2786959865781511e+00  1.0238196027308346e+00  1.5068971578407229e+00  1.0256332772269960e+00  1.1563478474984026e+00  1.2942598954718720e+00  1.4391751388676957e+00  1.4362789981446684e+00  0.0000000000000000e+00  1.3713037112990727e+00  1.4839913189076728e+00  1.4535485129662560e+00  1.5055816679149052e+00  1.3383830910008692e+00  1.2365600894647260e+00  1.4661152731727867e+00  1.4882238388400779e+00  8.8918186721901893e-01  1.4938173855570225e+00  1.5049833426677448e+00  3.6781970444687589e-01  0.0000000000000000e+00  1.5071817894745536e+00  1.1568974212743848e+00  3.5309410591003576e-01  8.7243100983749644e-01  1.4013089864422612e+00  1.2710032451193816e+00  0.0000000000000000e+00  4.2910830290792068e-01  4.2795342678593246e-01  9.1012837502342858e-01  1.3890787203103856e+00  4.1576948273523501e-01  7.6107552861663008e-01  1.2929986471153592e+00  1.2749826080576934e+00  1.3738980194311508e+00  1.4434219411230009e+00  4.2717216254748447e-01  6.6506178854818476e-01  0.0000000000000000e+00  3.5950672595749517e-01  1.2173645026619935e+00  1.3954984999312088e+00  0.0000000000000000e+00  1.4228160235618070e+00  3.7567601225502878e-01  1.1295779023207038e+00  1.0437943183877254e+00  1.3612259093725594e+00  7.3753780973483896e-01  0.0000000000000000e+00  4.1311232674044818e-01  1.3858663177435839e+00  1.4879747798809513e+00  1.3556729398554155e+00  6.8017118036106572e-01  0.0000000000000000e+00  1.4962270317642674e+00  8.0219773433318209e-01  1.1335293219159313e+00  8.9951004577627325e-01  1.3634250278063338e+00  1.3031008933281807e+00  0.0000000000000000e+00  3.5364761641486381e-01  3.5311606962456421e-01  0.0000000000000000e+00  1.5073867177456681e+00  1.4955157748673111e+00  1.4608141097270215e+00  7.4355683410653439e-01  3.6154206160222485e-01  1.2897562640364284e+00  0.0000000000000000e+00  3.5320280409359017e-01  1.1053480877806900e+00  1.2277360131111914e+00  8.9143603959510476e-01  1.4953349699264085e+00  1.5039430909709979e+00  1.4821626086319937e+00  3.6344359004927596e-01  1.5072160111659274e+00  0.0000000000000000e+00  0.0000000000000000e+00  1.4841170614258448e+00  0.0000000000000000e+00  1.2941569484197812e+00  1.4839853204458726e+00  9.1740715463548628e-01  0.0000000000000000e+00  0.0000000000000000e+00  0.0000000000000000e+00  9.1754539795682388e-01  1.4837281600089374e+00  1.2940208316332455e+00  9.1790397240887545e-01  1.2944031699569840e+00  9.1765329445725652e-01  1.3383772731308468e+00  6.4734422198433306e-01  1.4140884345515929e+00  3.6051039588348771e-01  1.3448356198008786e+00  1.2487738308807392e+00  1.0376211311038286e+00  3.3963731813153125e-01  1.1129109790338283e+00  1.0812660987407676e+00  1.4877933545748758e+00  1.4516155270441067e+00  1.5001617617491860e+00  9.7236281245454326e-01  1.1072252711420487e+00  1.0097862622166458e+00  1.0287383997119217e+00  6.7953392423223158e-01  1.3666334799296724e+00  6.4094552478464584e-01  1.2985216307243475e+00  1.1713884180167520e+00  3.2723104920938750e-01  1.0732669080928161e+00  6.4046143419116286e-01  7.0743683686415104e-01  1.4705208213741165e+00  1.4724499528844752e+00  6.9021072117151605e-01  1.3239693070012029e+00  1.5017610052993546e+00  8.3517769726707136e-01  3.1216674229261537e-01  1.4051973970616325e+00  1.2791501786126007e+00  3.1234705920342015e-01  2.9684746917904364e-01  1.2617039182666820e+00  1.1946550694223603e+00  1.4520162134156598e+00  1.4532290883681136e+00  1.0580722394236008e+00  1.1824437276614708e+00  1.4985886144204672e+00  1.4236092789148751e+00  1.4907393366052741e+00  8.8008958471754084e-01  8.7309003938058793e-01  1.1663324963703476e+00  1.4997505688111263e+00  1.5079458017139105e+00  9.5755246597047461e-01  2.8840937365535652e-01  2.6063430306581364e-01  1.2165785077251368e+00  1.4578189088762077e+00  9.4769390614165838e-01  7.9382988266786447e-01  1.4385474154248032e+00  8.2594418603272424e-01  1.5068934280548665e+00  1.3809071484124444e+00  5.7985055491840864e-01  2.7816331509946890e-01  2.6044639990812973e-01  6.8665022933209441e-01  1.4597394663189491e+00  1.2649238961232914e+00  1.3062270109630063e+00  1.3717646238618812e+00  5.7003966953682772e-01  3.0440762276333178e-01  1.4728189915426633e+00  1.5071239720089020e+00  2.3230516464339426e-01  7.1090848662610873e-01  1.3819692937585220e+00  1.1618856582290196e+00  1.0888402497072083e+00  1.2563889253863247e+00  1.3873485106369492e+00  4.0512506049976466e-01  4.1608503580674777e-01  1.0939135424936490e+00  9.1600507934989106e-01  1.1755984257762566e+00  1.0808814685763706e+00  1.4079892917293904e+00  7.5015536315575249e-01  6.9095891848724000e-01  5.8212236458262168e-01  3.1112524971187411e-01  5.1155372024342782e-01  7.4003799868346021e-01  7.5043095109370606e-01  1.2010050564904593e+00  2.4438504218171084e-01  3.2995585234156183e-01  5.7951552346251611e-01  7.2129845333892895e-01  2.4944331337068021e-01  3.0630083959874932e-01  8.7105149025209927e-01  8.6682655816510079e-01  4.7937375162285228e-01  8.0044513467544454e-01  1.0019929220012811e+00  1.0540414235794540e+00  9.7491188366809789e-01  1.4569631433570132e+00  1.4467172386167464e+00  1.4913697055764026e+00  1.1953016450144620e+00  1.0441428995166211e+00  2.0548416861802607e-01  1.0917436530031375e+00  1.2701988711678256e+00  5.9475836755663891e-01  9.3639271234721477e-01  1.1396557674929531e+00  1.1037736334843795e+00  1.3153619804631536e+00  1.3883131218042604e+00  1.4998206557168745e+00  8.5298687227587833e-01  1.4931255111219424e+00  5.9551641555637758e-01  7.8003785600079434e-01  1.4852181248837562e+00  1.3709252184212317e+00  1.1839822464413479e+00  1.9948619930581651e-01  1.4670390892646397e+00  1.4939972170656584e+00  1.4362510177805170e+00  1.2173366195313788e+00  1.5062460327216762e+00  1.2432387390051844e+00  1.0717685254934735e+00  8.5684279187520307e-01  1.9033299862668107e-01  1.4656887584938794e+00  1.5017313151380283e+00  1.5019724048411132e+00  1.4548485073162492e+00  1.4744701047985158e+00  1.9600755552277940e-01  7.5665105166099744e-01  1.9260399587385918e-01  1.3590428179268590e+00  1.9070346557561413e-01  8.7750551493850215e-01  1.5016755167678353e+00  1.8578267039942570e-01  1.2738483356846941e+00  1.0574565908332936e+00  1.0572450525537387e+00  5.0903706578183872e-01  1.3588176493370538e+00  1.5013473382482259e+00  1.5016253798492263e+00  1.5013904129844684e+00  1.8251340450948356e-01  2.3272370327905925e-01  1.9094281089920245e-01  1.4797516285479619e+00  1.4381301040839012e+00  1.0600027785632509e+00  6.0063508087536321e-01  1.8360864458594156e-01  8.1243166532712219e-01  1.2997936008759470e+00  7.8425615367755530e-01  1.5060730891401546e+00  1.4568515302646285e+00  5.5897081708089191e-01  6.9339609305656791e-01  1.5055860589013070e+00  1.4819456496199548e+00  1.3251718179554999e+00  1.4197082548238757e+00  1.8989118144242320e-01  1.4038153801778417e+00  1.2384987158800036e+00  1.3279992699463412e+00  1.3969875969778698e+00  1.2719870069633952e+00  1.4904141202757786e+00  1.4220486002806265e+00  8.4594730047542832e-01  5.5162737043689147e-01  1.3975591453180585e+00  1.4274995024336616e+00  9.8195018423476310e-01  1.3129074994490959e+00  9.7829151197566855e-01  1.4395759258919538e+00  1.4753309315747341e+00  1.4589412511599216e+00  1.3456952617301530e+00  1.5054366195163662e+00  7.6867117017005260e-01  2.8452963726675662e-01  1.3461519092925944e+00  4.1636313298969718e-01  1.3420760962207519e+00  1.1389697779009389e+00  1.2533628508421348e+00  1.3307826001204865e+00  1.0448950578806868e+00  1.4349513003663272e+00  1.4057132905833567e+00  1.2975399309950870e+00  1.1740136548263103e+00  1.4831249388139642e+00  0.0000000000000000e+00  1.5048713223439902e+00  1.4960722128462995e+00  1.2052303595310878e+00  1.1940197876200940e+00  5.7800435086943214e-01  1.5071415219335067e+00  1.4925091365859016e+00  8.9785219775635339e-01  1.1794279707500721e+00  1.3472861659161848e+00  9.4160197919425248e-01  1.0252179155860222e+00  0.0000000000000000e+00  1.4113445634588337e+00  1.8413088658717408e-01  5.3110554612754035e-01  1.4845076342624939e+00  4.7190551372898470e-01  2.3226879627666633e-01  8.9977792194381367e-01  1.2565566632027239e+00  1.3247626162218906e+00  2.1079632003900678e-01  1.0436449868310016e+00  4.7570950781962146e-01  6.0902386659350616e-01  1.2806020077539813e+00  1.4422554420960136e+00  6.0759660329298126e-01  1.4430115325031740e+00  1.8357401471541665e-01  1.4012897725516564e+00  1.3288733251298399e+00  5.8744354990398873e-01  9.5686387930964156e-01  8.4122170498439197e-01  1.4817383319054402e+00  5.6894315929220618e-01  5.9150043617544812e-01  9.5432691944942838e-01  0.0000000000000000e+00  1.3564364585145621e+00  0.0000000000000000e+00  9.8691115466607193e-01  1.2602543401753608e+00  1.3094388556771257e+00  1.1052385019709339e+00  1.5071843279040815e+00  1.4930327295939341e+00  1.4282917625879443e+00  1.2117276859493937e+00  1.3703587709055105e+00  0.0000000000000000e+00  2.1318070890423599e-01  9.1698540455314104e-01  1.8219756732375791e-01  7.3128673511567643e-01  1.1797226414078128e+00  4.0597094716454962e-01  1.0207960755539001e+00  7.9119514799240465e-01  6.3649823540956196e-01  3.1590162780068554e-01  0.0000000000000000e+00  4.6983620044414759e-01  4.7551472136808659e-01  5.0773807330648479e-01  1.5040633251752027e+00  0.0000000000000000e+00  9.8795728839933783e-01  7.9808680947124200e-01  1.5055348422978119e+00  1.3609704953935329e+00  1.4534507084681834e+00  1.4308831726326292e+00  1.3593495283447992e+00  1.4468515975542700e+00  1.5064377095107437e+00  6.8565507425014038e-01  1.0901745675750643e+00  8.4848098472976652e-01  1.1158704459453963e+00  1.4861068135336188e+00  1.4931127923195346e+00  0.0000000000000000e+00  9.8259621176276102e-01  2.0871009832347090e-01  2.5424434955065567e-01  1.1677614527381286e+00  1.2227203065181906e+00  1.4176846828483540e+00  2.3883945352278013e-01  7.4216663620494228e-01  1.4591928207277329e+00  1.3105057285699344e+00  1.4144497328027656e+00  1.1705398774416360e+00  1.4685920668991830e+00  1.4987400401285083e+00  1.2170073871229350e+00  1.8711520827844297e-01  2.0097236826227427e-01  2.0540706814429965e-01  1.4405110463449602e+00  5.4469170594404037e-01  1.2959104359158888e+00  1.4869299348555980e+00  1.4634612126527475e+00  1.4274563115995729e+00  9.1932183686546387e-01  1.1119716364597523e+00  4.5726790383359478e-01  1.9444944536851533e-01  1.4709479535842898e+00  1.2177306548925642e+00  1.2872050443670100e+00  1.4033926247251829e+00  1.3986956473101884e+00  1.3933343267728115e+00  1.1746635335393960e+00  1.1296440979887830e+00  1.2819304362608597e+00  1.8356058904357442e-01  0.0000000000000000e+00  1.1384262992465894e+00  1.4864201401625430e+00  1.4902858930419165e+00  1.4415531259757461e+00  5.4543856635257193e-01  2.0564247973952474e-01  1.5070723683990954e+00  6.9764164853992716e-01  7.2970625584974003e-01  1.2915005304040437e+00  1.3401121445251798e+00  6.6023329635383987e-01  5.3371001026493570e-01  7.9792247463936550e-01  8.3428493997050857e-01  1.4958438531747233e+00  6.2182217480777602e-01  8.1971700598625552e-01  8.3053254783513208e-01  1.3690836590825575e+00  9.6460587106681273e-01  9.8801998540988734e-01  1.4070443741211507e+00  1.3593506918802942e+00  7.5066536009467477e-01  1.1833282747840639e+00  3.7484824403955302e-01  1.1229224131675355e+00  1.4581619213435537e+00  1.9615676006151231e-01  4.4225826212593350e-01  1.5049809152981140e+00  4.6719252348117701e-01  5.6733243733033967e-01  4.4727842614684965e-01  8.8134100959622030e-01  1.3329414207818351e+00  1.5075648652986413e+00  5.5104473448308278e-01  1.3868682650810311e+00  1.4321364375532764e+00  1.0882310653178462e+00  1.0796087985632514e+00  6.3239472015404252e-01  1.0361068912623590e+00  1.0296798934480242e+00  1.4133529471249462e+00  1.4434407188022489e+00  1.2546806425087109e+00  1.5068176099811683e+00  9.0030664581479591e-01  1.4828886324379078e+00  1.3868962970798009e+00  4.6875051805706930e-01  1.3254091125485854e+00  7.7703699558415384e-01  1.4965148919127884e+00  8.4072950857659601e-01  1.9358905860302994e-01  3.9747203572328449e-01  5.1826219765704529e-01  6.6809428020560857e-01  1.4813495713552791e+00  1.4539355329539543e+00  1.4744300523514866e+00  1.0122699010016325e+00  1.4000498336075811e+00  1.3588610322794057e+00  1.2356147389326666e+00  1.2709744238140757e+00  1.5011081109435644e+00  0.0000000000000000e+00  1.0843540557260081e+00  9.5776688257277320e-01  7.3932638165229281e-01  6.1965505927527098e-01  8.8065034692069000e-01  7.7115792396393645e-01  1.5062286238815732e+00  5.7421668350712129e-01  1.3237465917770934e+00  9.2741130895957435e-01  1.0052491417265295e+00  1.1647827320352300e+00  0.0000000000000000e+00  5.1179039578444063e-01  4.8551096329906157e-01  7.9436042124778339e-01  7.3918290728321800e-01  7.8728265348851623e-01  1.2641033691059402e+00  1.1749307665825213e+00  1.3624835333325396e+00  1.4036697525472233e+00  7.7453821605668061e-01  0.0000000000000000e+00  1.8457380254537539e-01  4.3283594772782363e-01  1.4875670381679591e+00  5.5198354698905483e-01  1.0570883047312041e+00  1.4627388195120874e+00  1.4973882206018214e+00  7.5695333206502202e-01  1.1214480033082745e+00  8.3881095423377550e-01  2.9301334274295143e-01  1.4281861268922815e+00  1.3425052041949903e+00  1.5017931924514130e+00  1.5067751945049421e+00  2.5556504651403139e-01  7.9557974048390079e-01  1.9330118052313491e-01  1.5077589022241675e+00  2.5014951640096006e-01  1.4114043674168251e+00  1.0292278173741856e+00  7.9428209307779596e-01  0.0000000000000000e+00  0.0000000000000000e+00  0.0000000000000000e+00  1.8251793004734249e-01  0.0000000000000000e+00  0.0000000000000000e+00  1.3594261369381344e+00  5.1225369228081885e-01  0.0000000000000000e+00  0.0000000000000000e+00  1.3591686318760978e+00  0.0000000000000000e+00  0.0000000000000000e+00  1.5015038296360244e+00  1.5012463279490440e+00  1.4539321590448713e+00  1.4539147801799204e+00  1.5015265302218801e+00  1.5017287399681123e+00  0.0000000000000000e+00  1.2177163187882709e+00  0.0000000000000000e+00  0.0000000000000000e+00  1.0289851433119723e+00  0.0000000000000000e+00  0.0000000000000000e+00  5.1175523266062695e-01  0.0000000000000000e+00  0.0000000000000000e+00  7.9419916007213676e-01  0.0000000000000000e+00  5.1186275638652101e-01  1.8354302286349120e-01  0.0000000000000000e+00  1.4541294587522777e+00  0.0000000000000000e+00  1.0294099905029082e+00  0.0000000000000000e+00  1.2175613107126873e+00  7.9408074209345036e-01  1.1106189311252312e+00  1.2536206988089307e+00  4.3381141362359038e-01  1.1300987880269007e+00  1.1122084799274934e+00  1.2783912202972931e+00  1.2776292450470628e+00  1.2042718869617284e+00  1.0496552625987348e+00  1.0251326174220565e+00  1.2530139527509379e+00  1.5832792046668476e-01  1.0823335197398241e+00  9.3043869803662393e-01  1.1906191224261073e+00  1.4540268310377478e+00  1.3698180971120644e+00  1.4158791696481101e+00  1.5004615376474568e+00  1.5987828980510757e-01  1.0175177922145637e+00  1.2012967137263793e+00  1.4894537971173745e+00  1.5074830719580314e+00  1.2764680137538471e+00  1.5000343326416548e+00  1.4824942379987918e+00  1.4303044499088413e+00  1.2670604247813995e+00  1.5014973530701192e+00  1.4202547480424577e+00  1.1125524364875661e+00  1.4704317024826796e+00  1.4959685775966760e+00  8.0338663435504876e-01  1.4594023532807845e+00  1.3933904135642987e+00  1.2481623834503597e+00  1.3631590642010467e+00  1.4772543924668389e+00  1.1611822447512570e+00  9.8329288845296048e-01  1.5020007683280416e+00  9.7169698447740593e-01  1.3287420770248177e+00  1.3653956651195931e+00  1.4905277370982177e+00  7.6120241885159012e-01  1.4691652093868457e+00  1.4929004824277110e+00  1.5032580544431224e+00  1.4840586818419839e+00  1.2267198447969641e+00  1.3216733130300751e+00  1.2260087941056494e+00  1.0806976046132091e+00  1.1292618301098660e+00  4.5553133959821601e-01  1.2866452337217986e+00  1.2240796147438784e+00  1.3987556687429337e+00  4.6110149320407945e-01  3.5178640104792241e-01  1.0847855056076463e+00  1.1790038460051715e+00  1.4001019332683045e+00  5.0350863376027633e-01  8.6241212231780162e-01  1.3943302056893820e+00  1.3550289567227305e+00  1.2855214084463369e+00  5.0067582430842961e-01  7.6394859585130481e-01  6.4964847168537354e-01  4.4001610660933343e-01  1.4739359559475198e+00  1.0427050568248715e+00  1.2431840290550615e+00  1.4146888626541354e+00  1.1034444809091166e+00  1.1631921857951710e+00  1.3270284806963468e+00  1.5197971815859496e-01  1.4935379246746812e+00  1.4738500210561225e+00  1.5064217819739512e+00  1.4982193728458602e+00  1.3771502277371896e+00  1.2813333932363049e+00  3.7861689388475028e-01  1.5045061126361008e+00  1.3156311505465508e+00  1.3940813603758402e+00  8.0016612117227803e-01  6.4076505877885170e-01  9.9174667158080332e-01  4.7228470984728749e-01  6.1257379025907954e-01  6.4266472897793181e-01  1.2411593866691910e+00  4.9888765900549165e-01  1.7241765127492045e-01  1.4718322610180290e+00  1.8319108626442709e-01  1.2606772018167107e+00  1.5054427554760754e+00  9.8379663241750792e-01  9.1923362159795718e-01  1.3156340784970422e+00  1.4956660029800930e+00  9.0283401987556822e-01  1.4689822740042275e+00  1.6399185736721944e-01  3.7543629829251141e-01  2.6343374118243307e-01  9.8384477941338488e-01  9.0917395155823377e-01  1.0254731885095598e+00  1.5259258982197421e-01  7.9201861768778892e-01  1.1988752896102692e+00  3.3938810079598380e-01  1.4501821223642903e+00  1.7701090664871055e-01  4.8765312068790517e-01  7.0535873010162797e-01  6.0953310532617888e-01  4.6301364364858028e-01  1.3657184067463650e+00  1.14325