<?xml version="1.0"?>
<VTKFile type="UnstructuredGrid"  version="0.1"  >
<UnstructuredGrid>
<Piece  NumberOfPoints="2513" NumberOfCells="4852">
<Points>
<DataArray  type="Float64"  NumberOfComponents="3"  format="ascii">-1 1 0  -1 -1 0  1 -1 0  1 1 0  0 -1 0  1 0 0  0 1 0  -1 0 0  0 0 0  -1 -0.5 0  -0.5 -1 0  -0.5 1 0  -1 0.5 0  1 -0.5 0  0.5 -1 0  1 0.5 0  0.5 1 0  0.4166666666666666 -0.4166666666666667 0  -0.4166666666666667 0.4166666666666667 0  -0.25 -0.5 0  0.5 0.25 0  -0.4861111111111112 -0.06944444444444445 0  0.0732758620689655 0.507183908045977 0  -0.625 -0.625 0  0.625 0.625 0  0.7380952380952381 -0.25 0  -0.7099116161616161 0.2105429292929293 0  -0.25 0.7380952380952381 0  0.105392156862745 -0.6348039215686275 0  0.6770833333333334 -0.6770833333333333 0  -0.6770833333333334 0.6770833333333334 0  0.3472222222222222 -0.06944444444444446 0  -0.7264957264957265 -0.3044871794871795 0  0.3141940982507127 0.7297313660835709 0  0.02049587951122483 -0.3227479397556124 0  -0.2690972222222223 0.1475694444444444 0  0.3859500089908372 -0.7274430156831472 0  -0.2228477945123298 -0.1761765495248019 0  0.2182539682539683 0.1884920634920635 0  0.75 0.375 0  -0.145442219440968 -0.7602211097204841 0  0.7088913690476191 0.0427827380952381 0  -0.75 -1 0  -1 -0.75 0  1 0.75 0  0.75 1 0  -0.7439982703698937 -0.04614153195464455 0  -0.4609235096577606 -0.3356498099556895 0  0.4063134471431929 0.4895621842856023 0  0.25 -1 0  -0.25 -1 0  -0.75 1 0  0.75 -1 0  -1 -0.25 0  -1 0.25 0  1 -0.25 0  -0.25 1 0  1 -0.75 0  -1 0.75 0  0.25 1 0  1 0.25 0  -0.4041423272138783 -0.7597141090712928 0  0.06500839607911253 0.7578103030529481 0  -0.1572801182352047 0.3838997021864289 0  -0.6528005242053915 0.4409494757946086 0  -0.4930160984848485 0.1544744318181818 0  -0.4732142857142858 0.7752976190476191 0  0.6398809523809523 -0.4538690476190476 0  0.5166054117396399 -0.2161233620965164 0  -0.002273787244753427 0.2232363985975174 0  0.1500564496765022 -0.1524955293952667 0  0.2016720420046758 -0.4410343282803009 0  -0.08495178036419618 0.6274139771124571 0  -0.8367311471133162 0.3642591720794645 0  -0.8333333333333334 -0.625 0  -0.594323836800685 -0.8231079456002283 0  -0.4466957714776065 -0.5349126855671806 0  0.8125 0.5625 0  0.78125 0.78125 0  0.5091392650016769 0.7947130883338923 0  0.125 -0.8382681931833136 0  -0.8184523809523809 -0.8184523809523809 0  -0.07781530426104531 -0.5819319697006881 0  0.5085055196703295 0.04967610411902112 0  0.2918471072074933 -0.276017202318847 0  0.5120763537765269 -0.5898771553229597 0  0.625 -0.8585349462365591 0  0.8158532234335381 -0.8158532234335381 0  -0.5198088446315396 0.5739411553684605 0  -0.8585349462365591 0.625 0  -0.8150493805516597 0.8156205699829586 0  0.8585349462365591 -0.625 0  -0.2688268348649726 0.5439331383603209 0  0.8242100426758139 -0.4436043596336612 0  0.5833756314287952 0.4479378157143976 0  0.8690476190476191 -0.125 0  -0.125 0.8690476190476191 0  -0.8692745600729823 0.125 0  0.8696725120759167 0.125 0  -0.625 0.8711516477451908 0  0.2339522463269718 0.3879558377955778 0  0.2453709502295031 0.5655822922838026 0  0.1730610651637797 0.02021709580868947 0  0.3245402594056757 -0.5644672020485209 0  -0.7291666666666666 -0.4816595441595442 0  -1 -0.375 0  -0.5811140848639904 -0.2127276307675001 0  0.673332592838314 0.2158348143233718 0  0.375 1 0  -0.5714768890989919 0.2985103444040069 0  -1 -0.125 0  -0.8453692574786325 -0.1875 0  -0.3144549134065865 -0.02408675326008025 0  -0.2898414972096258 -0.3336092734780093 0  -0.1075052092206287 -0.4224330421314983 0  -0.05043970703604117 -0.1652278959397459 0  0.6459672950297897 -0.1113415301525317 0  0.4645210271029513 0.6398480556579343 0  0.3512863754411909 0.0937979496253573 0  -0.6063160985568274 0.03891469652249891 0  -0.3428819444444445 0.8690476190476191 0  0.625 1 0  -0.1602164796159982 0.02697860906625157 0  0.04648110064133829 -0.4808416424239687 0  1 0.875 0  -0.3836102479201657 0.6484936449177356 0  -0.3776011723096096 0.263078478984336 0  -0.6024978259969829 -0.3949628096211138 0  0.125 1 0  0.2010781308272777 0.8456221018461906 0  0.2822509696388829 -0.845902544691141 0  -0.3285533674953515 -0.6289773550938936 0  0.3461306793221754 0.278777492464833 0  0.4737475672408696 -0.8508448959534423 0  0.2384632828836344 -0.7029523187242811 0  -0.004777287059791593 0.3759269695907358 0  -0.8499735021850066 -0.3912320205328522 0  0.1222536293721587 0.2963971539625205 0  -0.3769456520999688 -0.203572526805711 0  -0.2749617205755651 -0.8464290792698902 0  0.004805888512766143 -0.747174355248311 0  -0.125 -1 0  -0.06001061822252458 -0.8724007765244854 0  0.875 0.4375 0  0.854421179608893 0.271342359217786 0  0.875 1 0  -0.1499861095763589 0.2358309656934888 0  0.3381943639137225 0.8663061796405532 0  -0.7853090110442228 0.4998412775277108 0  0.7398165998560814 -0.5535192694951373 0  0.1580042122341573 -0.3100246140259917 0  -0.7291666666666667 -0.7142857142857142 0  -0.375 -1 0  0.6483368386154684 0.8514905990110488 0  -0.1295370103291928 -0.2826118305021242 0  0.07458201853700455 0.1123894386563915 0  0.6146465857036327 -0.3161203659316075 0  0.5551898493894731 -0.740296118159085 0  0.375 -1 0  0.482702798370208 -0.084133350091034 0  0.87890625 0.68359375 0  -0.05917195534525846 0.4971092425697621 0  0.1260710309213975 0.6343750312956699 0  0.8690476190476191 -0.3077066815262848 0  -0.2912010232560567 0.3668168386732139 0  -0.875 1 0  -1 0.875 0  1 -0.875 0  0.875 -1 0  -0.8689564281364567 -0.006189266075306407 0  -0.7449425635110547 0.08458938160051771 0  -0.7150266761936593 -0.1739444581417552 0  -0.5260034831318311 -0.711099823962112 0  -0.4724626808827322 -0.871722230709409 0  0.4734436795977052 0.377714794132168 0  -0.875 -1 0  -1 -0.875 0  0.6927189078571988 0.5156567235715964 0  -0.3742497615796874 -0.4296005251260107 0  -0.1969436423297711 -0.6387157229772615 0  -0.6179496409766825 -0.08933356056510935 0  -0.424405057115988 0.04452428810878029 0  -0.08479048335844169 0.1279607007132633 0  0.003830300099055113 0.8712085230656206 0  0.8748778838820267 -1.379218479898026e-05 0  -0.375 1 0  -0.625 1 0  1 0.125 0  -0.125 1 0  1 -0.375 0  1 -0.125 0  1 -0.625 0  0.625 -1 0  0.125 -1 0  -0.625 -1 0  -1 -0.625 0  -1 0.125 0  -1 0.375 0  -1 0.625 0  1 0.375 0  1 0.625 0  0.6325660748712082 0.3335187599557389 0  -0.06420945895056573 0.7549874027425891 0  -0.8769015540914771 0.2478802253893416 0  0.871875 0.871875 0  -0.6868091492840067 0.3270978624973681 0  -0.5363597469565949 0.412994850055505 0  -0.6803734992638302 0.5574295000651103 0  -0.7076253581162534 -0.8803439094224437 0  -0.8778089002295137 -0.5106896447504627 0  -0.3860184984222981 0.530566778071246 0  0.6109900617121508 0.1128453077697081 0  0.3896945134930274 -0.1915382873255086 0  0.7605656944697778 -0.06822134873122943 0  0.3576151269893478 0.5948388411612135 0  -0.5689902680792265 -0.5143596830118065 0  0.6262446286847614 -0.5735657901943212 0  0.2030558252325225 -0.5625263842513452 0  0.6123273142928579 0.7407533260723429 0  0.4016460890123554 -0.3042863223111857 0  -0.59039693199147 0.7578418819188018 0  0.7276932493917544 -0.3705808024528924 0  0.5222536818742854 -0.4713886230400014 0  -0.5101986527137737 0.8848365765607674 0  0.510560172809238 0.5356013299918891 0  -0.3603569195756083 0.75823710606415 0  0.1967279277813232 0.728226870058472 0  -0.6086880986371127 0.1545624071548516 0  -0.38105366729386 0.1511189987807864 0  -0.2944659463671584 -0.7359061804869591 0  0.5060729154966499 -0.3475227845833823 0  -0.09281616240412746 -0.06197858250969457 0  0.7649739583333334 0.6673177083333334 0  0.7628906249999999 0.890234375 0  -0.2666864184909611 0.2585504071132311 0  0.3635064892129658 0.3878003602709461 0  -0.2339409722222222 0.8901937905844155 0  -0.1718792125974916 -0.8957733325456778 0  0.1001768566329531 0.4023510017391879 0  0.3120260172693757 -0.4540546875576884 0  0.7804062804433681 0.1896628610854537 0  0.4087715451998049 0.187961780041608 0  -0.1584963477271457 0.5451611892421655 0  -0.8926817849258324 0.463022006336401 0  0.2338091473445219 -0.07576267331277289 0  0.08171112182813692 -0.2349087687359925 0  0.04635385178956847 -0.1044635073718474 0  -0.4377391632114205 -0.6448874471423088 0  -0.1907678351227189 0.6480215912813945 0  0.300605946475244 0.4741444604171038 0  -0.2145033720757486 -0.06751709909419711 0  0.6069191921170397 -0.005492331448357812 0  0.0214718770761248 0.6032397936031719 0  0.5476675683364878 0.8992752415326501 0  0.4387475014316537 0.9093708953002239 0  -0.4932997685306436 -0.4381009159993523 0  0.2515197695339056 -0.1791673369138964 0  -0.7291666666666667 -0.6088789682539681 0  -0.9166666666666667 -0.6875 0  0.620579540363709 -0.2122431523583302 0  -0.484950136419973 0.6719440339397442 0  0.2857044415400258 0.0137589173127316 0  -0.8945708364098356 -0.288306105327986 0  0.4043102720140535 0.7842914560451557 0  0.04123256238752064 -0.9026968245801402 0  0.2003676884403109 -0.9091888601740487 0  0.1068775558538842 -0.7373377130403223 0  -0.4804566783514427 -0.1763307203045643 0  0.108286342087769 -0.3993789328997278 0  -0.191883080105361 -0.3640821726430649 0  -0.07025064492006244 0.2984876656890053 0  -0.7039324641409584 0.788312126296613 0  -0.7311286585775438 0.8932502354831682 0  0.5171409396884947 0.1503852691889257 0  0.4229392823658633 -0.003216522184234835 0  -0.5621736087218259 -0.919558629836806 0  -0.626474064879544 -0.7266572613636506 0  0.2446828746617422 0.2867616783302419 0  0.1759429608742923 0.4776611759306416 0  -0.3468240303741654 -0.5260416435617549 0  -0.7465808808425306 0.4069574477998361 0  -0.7819962170660292 0.2802441065650652 0  -0.3742623214119594 -0.8547800509641984 0  0.1014498009713561 0.8506721983266377 0  0.4285217620918213 -0.5230190595570253 0  0.4091738370487775 -0.6256346204225141 0  0.78125 0.46875 0  0.90625 0.53125 0  -0.4791801348852565 0.2553992655702126 0  0.7843318610782772 -0.7086046956885941 0  0.8909728264971901 -0.7355183796514634 0  0.7041908166528879 -0.7830649143180282 0  0.7311821352
[...]
<PointData  Scalars="velocity-2"> 
<DataArray  type="Float64"  Name="velocity-2"  format="ascii">0.0000000000000000e+00  0.0000000000000000e+00  0.0000000000000000e+00  0.0000000000000000e+00  0.0000000000000000e+00  1.5150675712937662e+00  0.0000000000000000e+00  1.5150157427334303e+00  1.5138657182003019e+00  1.1351471356606493e+00  0.0000000000000000e+00  0.0000000000000000e+00  1.1344965852169644e+00  1.1352908392070657e+00  0.0000000000000000e+00  1.1348883729891390e+00  0.0000000000000000e+00  1.2511841648841455e+00  1.2510059894937189e+00  1.1357191350783475e+00  1.4195741654794447e+00  1.5075735431673176e+00  1.1235023966146709e+00  9.2102856903166153e-01  9.2133100692640391e-01  1.4199530716037989e+00  1.4470871562959131e+00  6.8710220955197443e-01  9.0237915852460382e-01  8.1835163750090223e-01  8.1867555887946952e-01  1.5070678714117820e+00  1.3741021906057005e+00  7.0609994754743288e-01  1.3561358870063351e+00  1.4816198448890601e+00  7.1101265614039144e-01  1.4663681790049143e+00  1.4602452612893222e+00  1.3002866727637887e+00  6.3690691584270975e-01  1.5118144587071629e+00  0.0000000000000000e+00  6.6104252199998970e-01  6.6128691040069443e-01  0.0000000000000000e+00  1.5117438097442717e+00  1.3425573731969676e+00  1.1499260286031556e+00  0.0000000000000000e+00  0.0000000000000000e+00  0.0000000000000000e+00  0.0000000000000000e+00  1.4199051171781862e+00  1.4199583949495393e+00  1.4198516970592203e+00  0.0000000000000000e+00  6.6108450479795855e-01  6.6102602609783190e-01  0.0000000000000000e+00  1.4201664721205500e+00  6.3875083152534629e-01  6.4275460288961428e-01  1.2907159422349459e+00  1.2190811236264125e+00  1.4777670126484215e+00  6.0245346690210377e-01  1.2011551386114478e+00  1.4443397700359351e+00  1.4389829895233155e+00  1.4789204157312590e+00  1.2191006112093379e+00  9.1647615985172193e-01  1.3132700815199856e+00  9.2141474185772043e-01  4.8649302246364090e-01  1.0802552056521681e+00  1.0340999532034014e+00  5.8822136791327384e-01  5.5583143255508072e-01  4.4838612860577259e-01  4.9885256191317484e-01  1.0001496633196536e+00  1.5108699288103167e+00  1.3987102046945707e+00  9.8563815563181578e-01  3.9675476807905841e-01  5.0521644281818534e-01  1.0136994064375444e+00  9.2122307467480113e-01  5.0540899451933163e-01  9.2154808880096417e-01  1.0655325713401946e+00  1.2157140143881899e+00  1.2092047613486652e+00  1.4906890740509851e+00  3.6904052770679807e-01  1.4912075990509392e+00  1.4908685606824545e+00  3.6361004178024947e-01  1.2856910880936347e+00  1.0286108710910173e+00  1.5142466875166267e+00  1.0304405212172176e+00  1.1623628653186737e+00  1.3013152295117250e+00  1.4466436879335434e+00  1.4437624365859154e+00  0.0000000000000000e+00  1.3786526975381033e+00  1.4913807857470707e+00  1.4610048830125382e+00  1.5128989921154503e+00  1.3456707370860290e+00  1.2432071590334282e+00  1.4735245260247467e+00  1.4955836588956617e+00  8.9283209542050790e-01  1.5012270085472030e+00  1.5122866269113153e+00  3.6862144106308775e-01  0.0000000000000000e+00  1.5145150768101729e+00  1.1629075220347156e+00  3.5384886318170117e-01  8.7591767313890878e-01  1.4087397155106518e+00  1.2779176691746121e+00  0.0000000000000000e+00  4.3010194543370622e-01  4.2894493952321444e-01  9.1395335616811546e-01  1.3965774291906965e+00  4.1670901793846710e-01  7.6371850613923342e-01  1.3000219664827908e+00  1.2819061070017599e+00  1.3812873100093364e+00  1.4508930126954644e+00  4.2813245593213134e-01  6.6711257213642083e-01  0.0000000000000000e+00  3.6028199504155684e-01  1.2239106097430195e+00  1.4029332217268276e+00  0.0000000000000000e+00  1.4302688876984906e+00  3.7650421786663035e-01  1.1353180732414137e+00  1.0488063914050478e+00  1.3685712491884623e+00  7.4003800895600969e-01  0.0000000000000000e+00  4.1407812997071258e-01  1.3932767963994990e+00  1.4953081472273761e+00  1.3629684425073223e+00  6.8230536102253314e-01  0.0000000000000000e+00  1.5035382746534500e+00  8.0510055734292441e-01  1.1393382809388946e+00  9.0323619824116042e-01  1.3707905474484061e+00  1.3102108657001557e+00  0.0000000000000000e+00  3.5440232814520012e-01  3.5387363495070140e-01  0.0000000000000000e+00  1.5147201469966796e+00  1.5028404168573353e+00  1.4682676115367634e+00  7.4611582569449419e-01  3.6232624474903208e-01  1.2968003793135057e+00  0.0000000000000000e+00  3.5395679800503116e-01  1.1109531788843894e+00  1.2343345425287386e+00  8.9507286343388492e-01  1.5026886384448561e+00  1.5112516393291193e+00  1.4895387756877678e+00  3.6421185539971346e-01  1.5145337372875964e+00  0.0000000000000000e+00  0.0000000000000000e+00  1.4915047285118950e+00  0.0000000000000000e+00  1.3012036372028364e+00  1.4913785294974493e+00  9.2127024134824698e-01  0.0000000000000000e+00  0.0000000000000000e+00  0.0000000000000000e+00  9.2140837627565819e-01  1.4911184759600975e+00  1.3010694990687710e+00  9.2176697036596544e-01  1.3014602451652983e+00  9.2151567456745798e-01  1.3456922683066603e+00  6.4928738832276189e-01  1.4215374132639407e+00  3.6129126303481485e-01  1.3521656463385829e+00  1.2554986439049676e+00  1.0425460262417729e+00  3.4034557766933982e-01  1.1185411786172719e+00  1.0866007632057586e+00  1.4951550372325972e+00  1.4590544996952408e+00  1.5074781699893287e+00  9.7672349328648234e-01  1.1127954726802061e+00  1.0144487867164058e+00  1.0335770092883727e+00  6.8165891772315257e-01  1.3739970372344317e+00  6.4285960438592660e-01  1.3056010062258909e+00  1.1775194399336428e+00  3.2792973391426844e-01  1.0784706167427482e+00  6.4235407674147327e-01  7.0972771160119563e-01  1.4779553845164619e+00  1.4798897287536845e+00  6.9238943380400186e-01  1.3311708619238947e+00  1.5090786114414598e+00  8.3833090441255087e-01  3.1281579312414809e-01  1.4126508403260922e+00  1.2861342828660542e+00  3.1300258664438096e-01  2.9745755439620808e-01  1.2685472004752045e+00  1.2009695040987582e+00  1.4594723045326121e+00  1.4606543675017629e+00  1.0631672281972904e+00  1.1886453506532779e+00  1.5059141263626841e+00  1.4311130484671704e+00  1.4980746994963248e+00  8.8362177536362418e-01  8.7659160064250630e-01  1.1724656512205547e+00  1.5070830969445619e+00  1.5152591313993644e+00  9.6176774676754972e-01  2.8899048513389419e-01  2.6115627614306619e-01  1.2231036688754264e+00  1.4652334962333189e+00  9.5183024359525703e-01  7.9671276637054977e-01  1.4459790277502569e+00  8.2902961897056604e-01  1.5141536855197240e+00  1.3883290317367052e+00  5.8144954031909268e-01  2.7873403953073073e-01  2.6097424220305643e-01  6.8881018032216712e-01  1.4671822109350836e+00  1.2717598830384789e+00  1.3133676561497005e+00  1.3791394950730129e+00  5.7157237057892463e-01  3.0503696093291388e-01  1.4802151974336346e+00  1.5143474110328647e+00  2.3276444994653545e-01  7.1323975083680624e-01  1.3893778415401972e+00  1.1679599382924479e+00  1.0942133474478746e+00  1.2632032880961337e+00  1.3947662108427514e+00  4.0603656020597012e-01  4.1702946401782354e-01  1.0993748975965114e+00  9.1985152813819238e-01  1.1817579613725282e+00  1.0862042059220256e+00  1.4154989490193954e+00  7.5273415607712169e-01  6.9314835386670304e-01  5.8374343145102237e-01  3.1176890677796570e-01  5.1284521523985394e-01  7.4253947200849324e-01  7.5302444897208942e-01  1.2073823257140182e+00  2.4486834004286834e-01  3.3064610888704904e-01  5.8110055143779837e-01  7.2368762757586969e-01  2.4993401633314200e-01  3.0693263756200367e-01  8.7453116496785333e-01  8.7026071137839267e-01  4.8055465297036898e-01  8.0337459876338380e-01  1.0065839326528798e+00  1.0591083188625461e+00  9.7926341853678822e-01  1.4643706684947115e+00  1.4541197622641351e+00  1.4987471168057751e+00  1.2016479654661567e+00  1.0491228073315975e+00  2.0588837223302173e-01  1.0971687733538942e+00  1.2771000002283659e+00  5.9642487174129044e-01  9.4043732049498285e-01  1.1454760836546372e+00  1.1093062331514396e+00  1.3224865955168630e+00  1.3957559731294196e+00  1.5071834404499065e+00  8.5631276682323010e-01  1.5004166750726937e+00  5.9720093348612924e-01  7.8281661680204795e-01  1.4926228261599148e+00  1.3783486667199292e+00  1.1902318264507523e+00  1.9986799329338795e-01  1.4744583420798623e+00  1.5013637881244957e+00  1.4437199932690554e+00  1.2238526884195229e+00  1.5135965778043625e+00  1.2499198727364078e+00  1.0770008007040808e+00  8.6018433624929203e-01  1.9069434489373366e-01  1.4730917732988744e+00  1.5090767838061145e+00  1.5093384587268464e+00  1.4622987527173674e+00  1.4818717885437216e+00  1.9637812776111685e-01  7.5927351914258989e-01  1.9296860194639234e-01  1.3664079636178932e+00  1.9105541623986316e-01  8.8104376837570164e-01  1.5090513147257938e+00  1.8615411984684457e-01  1.2807912347432382e+00  1.0625835505371315e+00  1.0623832300999780e+00  5.1032344499135562e-01  1.3661554353563541e+00  1.5086887477943700e+00  1.5089717295860903e+00  1.5087444962400207e+00  1.8285608451562116e-01  2.3317752369339043e-01  1.9131051550833494e-01  1.4871660730961227e+00  1.4455567204396285e+00  1.0651102691879104e+00  6.0233685498209677e-01  1.8396918876468882e-01  8.1548533366923626e-01  1.3068655318965137e+00  7.8706602483754917e-01  1.5133822833012918e+00  1.4643045146126108e+00  5.6045775354536698e-01  6.9563895137993637e-01  1.5129220635989722e+00  1.4893212703838994e+00  1.3323913912528813e+00  1.4271393108138601e+00  1.9024139985504054e-01  1.4112496590636472e+00  1.2451742072661975e+00  1.3352265502693230e+00  1.4044417056206324e+00  1.2788838473150304e+00  1.4977373759517940e+00  1.4295497164515667e+00  8.4923197706327880e-01  5.5309439464461774e-01  1.4050033139702212e+00  1.4349791928497335e+00  9.8639758221737961e-01  1.3200842003618878e+00  9.8269610612093550e-01  1.4470435403535098e+00  1.4827236857818722e+00  1.4663696513568698e+00  1.3530283909717986e+00  1.5127946150743663e+00  7.7137942947047067e-01  2.8509746554932380e-01  1.3534722357780555e+00  4.1732864094940425e-01  1.3493756789530102e+00  1.1448607587862538e+00  1.2601526514266836e+00  1.3380307433679881e+00  1.0499078972346187e+00  1.4424503909236670e+00  1.4131684529065889e+00  1.3046429450449963e+00  1.1802001096884358e+00  1.4905166897303612e+00  0.0000000000000000e+00  1.5121868838039256e+00  1.5034099549941218e+00  1.2116812638700338e+00  1.2003425528607550e+00  5.7959613861438286e-01  1.5144494839130960e+00  1.4998752436588381e+00  9.0156034925572792e-01  1.1856154032662767e+00  1.3546209264329929e+00  9.4563287372032090e-01  1.0300396077223108e+00  0.0000000000000000e+00  1.4187892539979436e+00  1.8448734618450877e-01  5.3246375848482896e-01  1.4918450090014976e+00  4.7305661118896031e-01  2.3273035414084803e-01  9.0347486254328713e-01  1.2633587258456704e+00  1.3319870759080443e+00  2.1119967890148958e-01  1.0486356875283529e+00  4.7685977227646198e-01  6.1076260511781844e-01  1.2875601542875883e+00  1.4497020915841710e+00  6.0932182286331960e-01  1.4504928115046050e+00  1.8392442779902762e-01  1.4087252564277493e+00  1.3361606182405172e+00  5.8906962891868009e-01  9.6104485675400608e-01  8.4445817318611105e-01  1.4891412664426149e+00  5.7048557377828091e-01  5.9315123517852986e-01  9.5848459113604900e-01  0.0000000000000000e+00  1.3638184103381599e+00  0.0000000000000000e+00  9.9140480700990519e-01  1.2670991176469364e+00  1.3165786274263627e+00  1.1107850709980476e+00  1.5145066831314868e+00  1.5004113663539458e+00  1.4357577876090131e+00  1.2181934107522305e+00  1.3777228528387437e+00  0.0000000000000000e+00  2.1358674390943189e-01  9.2082360279169351e-01  1.8254717172399318e-01  7.3371632990437041e-01  1.1859349688767233e+00  4.0688829969759532e-01  1.0255957954363835e+00  7.9404578143081406e-01  6.3837678976732382e-01  3.1655991883129919e-01  0.0000000000000000e+00  4.7095579554660066e-01  4.7667534093610053e-01  5.0903081553221907e-01  1.5114255838564201e+00  0.0000000000000000e+00  9.9243997410701468e-01  8.0098145800475673e-01  1.5128522173014460e+00  1.3683349090121975e+00  1.4609138896715310e+00  1.4383330416573021e+00  1.3667086442029475e+00  1.4543064849963319e+00  1.5137511577104197e+00  6.8779126797403711e-01  1.0955646548433531e+00  8.5176005063372173e-01  1.1215043446018678e+00  1.4934381156756746e+00  1.5004291469342859e+00  0.0000000000000000e+00  9.8702403290181684e-01  2.0913017653649729e-01  2.5475417560969782e-01  1.1738442359950074e+00  1.2292757680918067e+00  1.4251274470378448e+00  2.3932144676364753e-01  7.4471569939636550e-01  1.4666184826491808e+00  1.3177081019232595e+00  1.4218668238038108e+00  1.1766546811612884e+00  1.4760273664323715e+00  1.5060874861517295e+00  1.2235157991319743e+00  1.8747454339576294e-01  2.0135390037078524e-01  2.0580563281463615e-01  1.4480074934337674e+00  5.4610363269398454e-01  1.3029609238915514e+00  1.4942769885231615e+00  1.4708372603771811e+00  1.4348951575485069e+00  9.2319396158396660e-01  1.1175620635932861e+00  4.5835598721048565e-01  1.9482494833244265e-01  1.4783476653422358e+00  1.2242481915322354e+00  1.2942161302891231e+00  1.4108066393331915e+00  1.4061112241738194e+00  1.4007889516433258e+00  1.1808325593824416e+00  1.1354356151307774e+00  1.2889216507157102e+00  1.8390704086506621e-01  0.0000000000000000e+00  1.1442790826444251e+00  1.4938030159189755e+00  1.4976663520292683e+00  1.4489649835661478e+00  5.4688606823438501e-01  2.0603536045844614e-01  1.5143394615688410e+00  6.9986440486416779e-01  7.3212387177540528e-01  1.2985098268383946e+00  1.3473388199634819e+00  6.6224399664937739e-01  5.3510491713354658e-01  8.0081659019808393e-01  8.3745974116311084e-01  1.5032089184268573e+00  6.2364105173333895e-01  8.2278927871058916e-01  8.3369964844491307e-01  1.3764599534385364e+00  9.6887824557647551e-01  9.9250463115215359e-01  1.4145410842638328e+00  1.3667070816149904e+00  7.5322410247723337e-01  1.1895614918689261e+00  3.7566542402101616e-01  1.1286290162832195e+00  1.4655694355988171e+00  1.9653739862623987e-01  4.4329680226846302e-01  1.5122901316840394e+00  4.6831905301267140e-01  5.6888040328730394e-01  4.4834582301409442e-01  8.8489440053311164e-01  1.3401813356382501e+00  1.5149110728552633e+00  5.5250216317964740e-01  1.3942921961661983e+00  1.4396222731917638e+00  1.0936146386117942e+00  1.0849395925053706e+00  6.3427821531548478e-01  1.0410009836363041e+00  1.0345323075521988e+00  1.4207700602656259e+00  1.4508736169798675e+00  1.2615423384707134e+00  1.5141337986655155e+00  9.0401412974876061e-01  1.4903052266364591e+00  1.3943058099201224e+00  4.6987105251723593e-01  1.3326157229615561e+00  7.7979573402250724e-01  1.5038743756502464e+00  8.4398697958219793e-01  1.9396256422559313e-01  3.9836904466066914e-01  5.1959431773424702e-01  6.7017028345202267e-01  1.4887609382032729e+00  1.4613854160022000e+00  1.4818019833906209e+00  1.0169728090130292e+00  1.4074990816561674e+00  1.3661616301206476e+00  1.2423164120025061e+00  1.2779342910690776e+00  1.5084407212637538e+00  0.0000000000000000e+00  1.0897376565951464e+00  9.6197489961735250e-01  7.4181927859190799e-01  6.2144659878166708e-01  8.8416675363277564e-01  7.7386892054909973e-01  1.5135604804116176e+00  5.7583277845587466e-01  1.3309616167905194e+00  9.3136105758947507e-01  1.0099247345839419e+00  1.1708274834198793e+00  0.0000000000000000e+00  5.1308357814417260e-01  4.8668706479444607e-01  7.9723967624957282e-01  7.4166695994129150e-01  7.9008083740489654e-01  1.2709270891229751e+00  1.1810967279676186e+00  1.3698719692273569e+00  1.4111055082834452e+00  7.7728647346543289e-01  0.0000000000000000e+00  1.8492493281724118e-01  4.3384829602601394e-01  1.4949300655142921e+00  5.5344336482966139e-01  1.0621849998374910e+00  1.4701684557035586e+00  1.5047475570767985e+00  7.5957332148480683e-01  1.1271285153040627e+00  8.4204279856565911e-01  2.9360903268047261e-01  1.4356285248292444e+00  1.3498200740685684e+00  1.5091426932611103e+00  1.5141020899798194e+00  2.5607385722949266e-01  7.9846319661854315e-01  1.9367911775010369e-01  1.5150728942955769e+00  2.5064134805091193e-01  1.4188763423004014e+00  1.0340767406328755e+00  7.9716652664649823e-01  0.0000000000000000e+00  0.0000000000000000e+00  0.0000000000000000e+00  1.8286366094362966e-01  0.0000000000000000e+00  0.0000000000000000e+00  1.3667844541239533e+00  5.1354357876384626e-01  0.0000000000000000e+00  0.0000000000000000e+00  1.3665264979898233e+00  0.0000000000000000e+00  0.0000000000000000e+00  1.5088385664697752e+00  1.5085884655152393e+00  1.4613861412679177e+00  1.4613711041263993e+00  1.5088615194530766e+00  1.5090622766534196e+00  0.0000000000000000e+00  1.2242358605394137e+00  0.0000000000000000e+00  0.0000000000000000e+00  1.0338374479629941e+00  0.0000000000000000e+00  0.0000000000000000e+00  5.1305143747403192e-01  0.0000000000000000e+00  0.0000000000000000e+00  7.9708107334976674e-01  0.0000000000000000e+00  5.1315806976372580e-01  1.8388479622391812e-01  0.0000000000000000e+00  1.4615811133300545e+00  0.0000000000000000e+00  1.0342666108848386e+00  0.0000000000000000e+00  1.2240805639513637e+00  7.9696785483977561e-01  1.1162373225006281e+00  1.2604107885780769e+00  4.3481379049746194e-01  1.1359150620203702e+00  1.1178353863905552e+00  1.2853055070586739e+00  1.2845781009367101e+00  1.2107009782553828e+00  1.0547055766640649e+00  1.0299446050422723e+00  1.2598062768520510e+00  1.5862079270156823e-01  1.0876842018325168e+00  9.3442367582758368e-01  1.1969329620833995e+00  1.4614514961604823e+00  1.3771843930895662e+00  1.4233375818125924e+00  1.5078017568885540e+00  1.6017629529856603e-01  1.0222632595627619e+00  1.2076867702747889e+00  1.4968157028702989e+00  1.5148274810856415e+00  1.2834134360719893e+00  1.5073486108023342e+00  1.4898811936236567e+00  1.4377482476103742e+00  1.2739115909431880e+00  1.5088255375329866e+00  1.4277091789374083e+00  1.1181409869468257e+00  1.4778632481281517e+00  1.5033160886915238e+00  8.0631358605306991e-01  1.4668380904004394e+00  1.4008153842061992e+00  1.2549041422886227e+00  1.3705497009808909e+00  1.4846068513633468e+00  1.1672510619375212e+00  9.8775161963846658e-01  1.5093649726190634e+00  9.7605088261830242e-01  1.3359867344828669e+00  1.3727594127041927e+00  1.4979124278682807e+00  7.6385288257542083e-01  1.4765875613329353e+00  1.5002532306131213e+00  1.5105579860325360e+00  1.4914396976830764e+00  1.2333574521927446e+00  1.3289288234797390e+00  1.2326224296683026e+00  1.0860341274841958e+00  1.1350227403279298e+00  4.5660534869392577e-01  1.2936449216855848e+00  1.2306324944335232e+00  1.4062403305341349e+00  4.6220325072257601e-01  3.5254357163551359e-01  1.0901510949186197e+00  1.1852126868656772e+00  1.4075684786810718e+00  5.0474648095399210e-01  8.6579400314961386e-01  1.4017857502268871e+00  1.3623745712127129e+00  1.2925689203074811e+00  5.0192420769536883e-01  7.6658751336245612e-01  6.5162034125328694e-01  4.4105131564116090e-01  1.4814029917908105e+00  1.0476830951264948e+00  1.2498481861661572e+00  1.4221292501341753e+00  1.1089939168033822e+00  1.1692818777644158e+00  1.3342497843579435e+00  1.5225659996486207e-01  1.5008820572529309e+00  1.4813375462470839e+00  1.5137466975126559e+00  1.5054897580302047e+00  1.3845313602889824e+00  1.2883213441531531e+00  3.7942123523660498e-01  1.5118855012071446e+00  1.3227711866594285e+00  1.4015321288238562e+00  8.0309072143014282e-01  6.4267425132561340e-01  9.9625844609628877e-01  4.7345601486844380e-01  6.1432988235951480e-01  6.4458448601093432e-01  1.2478375827186683e+00  5.0010341585804186e-01  1.7274406200803566e-01  1.4792029279080816e+00  1.8354055580140288e-01  1.2675118137342083e+00  1.5127638471929756e+00  9.8823090876021003e-01  9.2311344208241430e-01  1.3227869399976608e+00  1.5030381874782983e+00  9.0654901857208769e-01  1.4763711965283139e+00  1.6431264307575671e-01  3.7626022446892871e-01  2.6396342736913436e-01  9.8831697919641937e-01  9.1298557515473755e-01  1.0302975499258002e+00  1.5287923714333951e-01  7.9488866514915224e-01  1.2052427306794542e+00  3.4009567202700691e-01  1.4576676340734289e+00  1.7734408816603625e-01  4.8886402693021602e-01  7.0763074989865260e-01  6.1125596750963351e-01  4.6411187964504735e-01  1.3730725997390247e+00  1.14918