<?xml version="1.0"?>
<VTKFile type="UnstructuredGrid"  version="0.1"  >
<UnstructuredGrid>
<Piece  NumberOfPoints="2513" NumberOfCells="4852">
<Points>
<DataArray  type="Float64"  NumberOfComponents="3"  format="ascii">-1 1 0  -1 -1 0  1 -1 0  1 1 0  0 -1 0  1 0 0  0 1 0  -1 0 0  0 0 0  -1 -0.5 0  -0.5 -1 0  -0.5 1 0  -1 0.5 0  1 -0.5 0  0.5 -1 0  1 0.5 0  0.5 1 0  0.4166666666666666 -0.4166666666666667 0  -0.4166666666666667 0.4166666666666667 0  -0.25 -0.5 0  0.5 0.25 0  -0.4861111111111112 -0.06944444444444445 0  0.0732758620689655 0.507183908045977 0  -0.625 -0.625 0  0.625 0.625 0  0.7380952380952381 -0.25 0  -0.7099116161616161 0.2105429292929293 0  -0.25 0.7380952380952381 0  0.105392156862745 -0.6348039215686275 0  0.6770833333333334 -0.6770833333333333 0  -0.6770833333333334 0.6770833333333334 0  0.3472222222222222 -0.06944444444444446 0  -0.7264957264957265 -0.3044871794871795 0  0.3141940982507127 0.7297313660835709 0  0.02049587951122483 -0.3227479397556124 0  -0.2690972222222223 0.1475694444444444 0  0.3859500089908372 -0.7274430156831472 0  -0.2228477945123298 -0.1761765495248019 0  0.2182539682539683 0.1884920634920635 0  0.75 0.375 0  -0.145442219440968 -0.7602211097204841 0  0.7088913690476191 0.0427827380952381 0  -0.75 -1 0  -1 -0.75 0  1 0.75 0  0.75 1 0  -0.7439982703698937 -0.04614153195464455 0  -0.4609235096577606 -0.3356498099556895 0  0.4063134471431929 0.4895621842856023 0  0.25 -1 0  -0.25 -1 0  -0.75 1 0  0.75 -1 0  -1 -0.25 0  -1 0.25 0  1 -0.25 0  -0.25 1 0  1 -0.75 0  -1 0.75 0  0.25 1 0  1 0.25 0  -0.4041423272138783 -0.7597141090712928 0  0.06500839607911253 0.7578103030529481 0  -0.1572801182352047 0.3838997021864289 0  -0.6528005242053915 0.4409494757946086 0  -0.4930160984848485 0.1544744318181818 0  -0.4732142857142858 0.7752976190476191 0  0.6398809523809523 -0.4538690476190476 0  0.5166054117396399 -0.2161233620965164 0  -0.002273787244753427 0.2232363985975174 0  0.1500564496765022 -0.1524955293952667 0  0.2016720420046758 -0.4410343282803009 0  -0.08495178036419618 0.6274139771124571 0  -0.8367311471133162 0.3642591720794645 0  -0.8333333333333334 -0.625 0  -0.594323836800685 -0.8231079456002283 0  -0.4466957714776065 -0.5349126855671806 0  0.8125 0.5625 0  0.78125 0.78125 0  0.5091392650016769 0.7947130883338923 0  0.125 -0.8382681931833136 0  -0.8184523809523809 -0.8184523809523809 0  -0.07781530426104531 -0.5819319697006881 0  0.5085055196703295 0.04967610411902112 0  0.2918471072074933 -0.276017202318847 0  0.5120763537765269 -0.5898771553229597 0  0.625 -0.8585349462365591 0  0.8158532234335381 -0.8158532234335381 0  -0.5198088446315396 0.5739411553684605 0  -0.8585349462365591 0.625 0  -0.8150493805516597 0.8156205699829586 0  0.8585349462365591 -0.625 0  -0.2688268348649726 0.5439331383603209 0  0.8242100426758139 -0.4436043596336612 0  0.5833756314287952 0.4479378157143976 0  0.8690476190476191 -0.125 0  -0.125 0.8690476190476191 0  -0.8692745600729823 0.125 0  0.8696725120759167 0.125 0  -0.625 0.8711516477451908 0  0.2339522463269718 0.3879558377955778 0  0.2453709502295031 0.5655822922838026 0  0.1730610651637797 0.02021709580868947 0  0.3245402594056757 -0.5644672020485209 0  -0.7291666666666666 -0.4816595441595442 0  -1 -0.375 0  -0.5811140848639904 -0.2127276307675001 0  0.673332592838314 0.2158348143233718 0  0.375 1 0  -0.5714768890989919 0.2985103444040069 0  -1 -0.125 0  -0.8453692574786325 -0.1875 0  -0.3144549134065865 -0.02408675326008025 0  -0.2898414972096258 -0.3336092734780093 0  -0.1075052092206287 -0.4224330421314983 0  -0.05043970703604117 -0.1652278959397459 0  0.6459672950297897 -0.1113415301525317 0  0.4645210271029513 0.6398480556579343 0  0.3512863754411909 0.0937979496253573 0  -0.6063160985568274 0.03891469652249891 0  -0.3428819444444445 0.8690476190476191 0  0.625 1 0  -0.1602164796159982 0.02697860906625157 0  0.04648110064133829 -0.4808416424239687 0  1 0.875 0  -0.3836102479201657 0.6484936449177356 0  -0.3776011723096096 0.263078478984336 0  -0.6024978259969829 -0.3949628096211138 0  0.125 1 0  0.2010781308272777 0.8456221018461906 0  0.2822509696388829 -0.845902544691141 0  -0.3285533674953515 -0.6289773550938936 0  0.3461306793221754 0.278777492464833 0  0.4737475672408696 -0.8508448959534423 0  0.2384632828836344 -0.7029523187242811 0  -0.004777287059791593 0.3759269695907358 0  -0.8499735021850066 -0.3912320205328522 0  0.1222536293721587 0.2963971539625205 0  -0.3769456520999688 -0.203572526805711 0  -0.2749617205755651 -0.8464290792698902 0  0.004805888512766143 -0.747174355248311 0  -0.125 -1 0  -0.06001061822252458 -0.8724007765244854 0  0.875 0.4375 0  0.854421179608893 0.271342359217786 0  0.875 1 0  -0.1499861095763589 0.2358309656934888 0  0.3381943639137225 0.8663061796405532 0  -0.7853090110442228 0.4998412775277108 0  0.7398165998560814 -0.5535192694951373 0  0.1580042122341573 -0.3100246140259917 0  -0.7291666666666667 -0.7142857142857142 0  -0.375 -1 0  0.6483368386154684 0.8514905990110488 0  -0.1295370103291928 -0.2826118305021242 0  0.07458201853700455 0.1123894386563915 0  0.6146465857036327 -0.3161203659316075 0  0.5551898493894731 -0.740296118159085 0  0.375 -1 0  0.482702798370208 -0.084133350091034 0  0.87890625 0.68359375 0  -0.05917195534525846 0.4971092425697621 0  0.1260710309213975 0.6343750312956699 0  0.8690476190476191 -0.3077066815262848 0  -0.2912010232560567 0.3668168386732139 0  -0.875 1 0  -1 0.875 0  1 -0.875 0  0.875 -1 0  -0.8689564281364567 -0.006189266075306407 0  -0.7449425635110547 0.08458938160051771 0  -0.7150266761936593 -0.1739444581417552 0  -0.5260034831318311 -0.711099823962112 0  -0.4724626808827322 -0.871722230709409 0  0.4734436795977052 0.377714794132168 0  -0.875 -1 0  -1 -0.875 0  0.6927189078571988 0.5156567235715964 0  -0.3742497615796874 -0.4296005251260107 0  -0.1969436423297711 -0.6387157229772615 0  -0.6179496409766825 -0.08933356056510935 0  -0.424405057115988 0.04452428810878029 0  -0.08479048335844169 0.1279607007132633 0  0.003830300099055113 0.8712085230656206 0  0.8748778838820267 -1.379218479898026e-05 0  -0.375 1 0  -0.625 1 0  1 0.125 0  -0.125 1 0  1 -0.375 0  1 -0.125 0  1 -0.625 0  0.625 -1 0  0.125 -1 0  -0.625 -1 0  -1 -0.625 0  -1 0.125 0  -1 0.375 0  -1 0.625 0  1 0.375 0  1 0.625 0  0.6325660748712082 0.3335187599557389 0  -0.06420945895056573 0.7549874027425891 0  -0.8769015540914771 0.2478802253893416 0  0.871875 0.871875 0  -0.6868091492840067 0.3270978624973681 0  -0.5363597469565949 0.412994850055505 0  -0.6803734992638302 0.5574295000651103 0  -0.7076253581162534 -0.8803439094224437 0  -0.8778089002295137 -0.5106896447504627 0  -0.3860184984222981 0.530566778071246 0  0.6109900617121508 0.1128453077697081 0  0.3896945134930274 -0.1915382873255086 0  0.7605656944697778 -0.06822134873122943 0  0.3576151269893478 0.5948388411612135 0  -0.5689902680792265 -0.5143596830118065 0  0.6262446286847614 -0.5735657901943212 0  0.2030558252325225 -0.5625263842513452 0  0.6123273142928579 0.7407533260723429 0  0.4016460890123554 -0.3042863223111857 0  -0.59039693199147 0.7578418819188018 0  0.7276932493917544 -0.3705808024528924 0  0.5222536818742854 -0.4713886230400014 0  -0.5101986527137737 0.8848365765607674 0  0.510560172809238 0.5356013299918891 0  -0.3603569195756083 0.75823710606415 0  0.1967279277813232 0.728226870058472 0  -0.6086880986371127 0.1545624071548516 0  -0.38105366729386 0.1511189987807864 0  -0.2944659463671584 -0.7359061804869591 0  0.5060729154966499 -0.3475227845833823 0  -0.09281616240412746 -0.06197858250969457 0  0.7649739583333334 0.6673177083333334 0  0.7628906249999999 0.890234375 0  -0.2666864184909611 0.2585504071132311 0  0.3635064892129658 0.3878003602709461 0  -0.2339409722222222 0.8901937905844155 0  -0.1718792125974916 -0.8957733325456778 0  0.1001768566329531 0.4023510017391879 0  0.3120260172693757 -0.4540546875576884 0  0.7804062804433681 0.1896628610854537 0  0.4087715451998049 0.187961780041608 0  -0.1584963477271457 0.5451611892421655 0  -0.8926817849258324 0.463022006336401 0  0.2338091473445219 -0.07576267331277289 0  0.08171112182813692 -0.2349087687359925 0  0.04635385178956847 -0.1044635073718474 0  -0.4377391632114205 -0.6448874471423088 0  -0.1907678351227189 0.6480215912813945 0  0.300605946475244 0.4741444604171038 0  -0.2145033720757486 -0.06751709909419711 0  0.6069191921170397 -0.005492331448357812 0  0.0214718770761248 0.6032397936031719 0  0.5476675683364878 0.8992752415326501 0  0.4387475014316537 0.9093708953002239 0  -0.4932997685306436 -0.4381009159993523 0  0.2515197695339056 -0.1791673369138964 0  -0.7291666666666667 -0.6088789682539681 0  -0.9166666666666667 -0.6875 0  0.620579540363709 -0.2122431523583302 0  -0.484950136419973 0.6719440339397442 0  0.2857044415400258 0.0137589173127316 0  -0.8945708364098356 -0.288306105327986 0  0.4043102720140535 0.7842914560451557 0  0.04123256238752064 -0.9026968245801402 0  0.2003676884403109 -0.9091888601740487 0  0.1068775558538842 -0.7373377130403223 0  -0.4804566783514427 -0.1763307203045643 0  0.108286342087769 -0.3993789328997278 0  -0.191883080105361 -0.3640821726430649 0  -0.07025064492006244 0.2984876656890053 0  -0.7039324641409584 0.788312126296613 0  -0.7311286585775438 0.8932502354831682 0  0.5171409396884947 0.1503852691889257 0  0.4229392823658633 -0.003216522184234835 0  -0.5621736087218259 -0.919558629836806 0  -0.626474064879544 -0.7266572613636506 0  0.2446828746617422 0.2867616783302419 0  0.1759429608742923 0.4776611759306416 0  -0.3468240303741654 -0.5260416435617549 0  -0.7465808808425306 0.4069574477998361 0  -0.7819962170660292 0.2802441065650652 0  -0.3742623214119594 -0.8547800509641984 0  0.1014498009713561 0.8506721983266377 0  0.4285217620918213 -0.5230190595570253 0  0.4091738370487775 -0.6256346204225141 0  0.78125 0.46875 0  0.90625 0.53125 0  -0.4791801348852565 0.2553992655702126 0  0.7843318610782772 -0.7086046956885941 0  0.8909728264971901 -0.7355183796514634 0  0.7041908166528879 -0.7830649143180282 0  0.7311821352
[...]
<PointData  Scalars="velocity-2"> 
<DataArray  type="Float64"  Name="velocity-2"  format="ascii">0.0000000000000000e+00  0.0000000000000000e+00  0.0000000000000000e+00  0.0000000000000000e+00  0.0000000000000000e+00  1.5050322522287907e+00  0.0000000000000000e+00  1.5054912115407548e+00  1.5059513906145245e+00  1.0404328007389736e+00  0.0000000000000000e+00  0.0000000000000000e+00  1.0393693514907365e+00  1.0399035658777418e+00  0.0000000000000000e+00  1.0394455161323377e+00  0.0000000000000000e+00  1.1475016165276699e+00  1.1454650074236112e+00  1.0384306596184949e+00  1.3669200271727535e+00  1.4920444786431486e+00  1.0300220291579394e+00  8.5378663417402789e-01  8.5610469319667881e-01  1.3653019198473753e+00  1.4068387915158302e+00  6.4076602118807968e-01  8.3665458950713978e-01  7.6122254428908021e-01  7.6098980141121819e-01  1.4933571445342930e+00  1.3003246194094056e+00  6.5848562788630449e-01  1.2726083806877506e+00  1.4569754243666675e+00  6.6330030437494714e-01  1.4353883927788147e+00  1.4254108670833612e+00  1.2019534760698940e+00  5.9758782507082586e-01  1.4990828450510978e+00  0.0000000000000000e+00  6.1880947494480421e-01  6.1954237399642731e-01  0.0000000000000000e+00  1.5012485332474532e+00  1.2590942962234029e+00  1.0523944486603649e+00  0.0000000000000000e+00  0.0000000000000000e+00  0.0000000000000000e+00  0.0000000000000000e+00  1.3673107486686202e+00  1.3659476884205191e+00  1.3658684886058523e+00  0.0000000000000000e+00  6.1936001856660960e-01  6.1876406701489695e-01  0.0000000000000000e+00  1.3662059264395130e+00  5.9716073582291684e-01  6.0227178924560543e-01  1.1915365401219322e+00  1.1136010616702228e+00  1.4520539526485732e+00  5.6582915077332496e-01  1.0993160503963135e+00  1.4041761528735153e+00  1.3945090087632135e+00  1.4521473784428003e+00  1.1163992484253042e+00  8.4810227898278623e-01  1.2191752420965378e+00  8.5565508140589930e-01  4.5813584613771757e-01  9.9352141762041601e-01  9.5589533256938497e-01  5.5180750043707705e-01  5.1976854120470861e-01  4.2075873340276748e-01  4.7063345253436295e-01  9.2627651104973929e-01  1.4980054862299605e+00  1.3348374393367051e+00  9.1558552224474576e-01  3.7283593637158136e-01  4.7344340428980541e-01  9.3522202279225419e-01  8.5478139385796714e-01  4.7383831470371940e-01  8.5531985949937417e-01  9.8248275636185911e-01  1.1099304831348777e+00  1.1053869742822591e+00  1.4690033263160440e+00  3.4672146455358505e-01  1.4710553131462203e+00  1.4691883568785911e+00  3.4421653748968395e-01  1.1863560943286584e+00  9.4804301076044273e-01  1.5025834701634315e+00  9.5330430976806313e-01  1.0649393950702890e+00  1.2036692541379943e+00  1.4057362045031176e+00  1.4000381119792702e+00  0.0000000000000000e+00  1.3079993707125399e+00  1.4697125131016675e+00  1.4255144921841543e+00  1.5015019672091741e+00  1.2592767014036661e+00  1.1411090187827013e+00  1.4451121069017652e+00  1.4771019967526191e+00  8.2870964976702921e-01  1.4855162871893948e+00  1.4994305993330055e+00  3.4881294984683892e-01  0.0000000000000000e+00  1.5045851779750570e+00  1.0620644282698708e+00  3.3271818371330780e-01  8.1327953356965776e-01  1.3494673714746597e+00  1.1765785870544765e+00  0.0000000000000000e+00  4.0438076781578897e-01  4.0402247482651049e-01  8.4837426390556370e-01  1.3330341040851335e+00  3.9167223511187471e-01  7.1189852821078614e-01  1.2030839679856684e+00  1.1817794787018303e+00  1.3105087627719367e+00  1.4106156522124240e+00  4.0499997605482169e-01  6.2576976464932255e-01  0.0000000000000000e+00  3.4078665702450150e-01  1.1219063835010361e+00  1.3428967170392536e+00  0.0000000000000000e+00  1.3839567167117393e+00  3.5393045546859325e-01  1.0394310959113267e+00  9.6694884481384658e-01  1.2927657912159227e+00  6.9193623913113633e-01  0.0000000000000000e+00  3.8945647910673054e-01  1.3311953117988802e+00  1.4785082551896043e+00  1.2872433272464892e+00  6.3726516268064592e-01  0.0000000000000000e+00  1.4886578097361316e+00  7.5095795988861869e-01  1.0437982161420876e+00  8.3812041727356745e-01  1.2953630997311461e+00  1.2161127879720235e+00  0.0000000000000000e+00  3.3413059632431091e-01  3.3354190451429405e-01  0.0000000000000000e+00  1.5033308374291303e+00  1.4869750239352850e+00  1.4338229439147634e+00  6.9526314110782184e-01  3.4056597618128825e-01  1.2011029435256675e+00  0.0000000000000000e+00  3.3334477062681706e-01  1.0192601558285792e+00  1.1298714153526088e+00  8.3133060559359995e-01  1.4870285142847144e+00  1.4982239493418164e+00  1.4684747978151400e+00  3.4467389221743910e-01  1.5037826390095106e+00  0.0000000000000000e+00  0.0000000000000000e+00  1.4703734571626290e+00  0.0000000000000000e+00  1.2027745855638219e+00  1.4702003977275775e+00  8.5478050208179523e-01  0.0000000000000000e+00  0.0000000000000000e+00  0.0000000000000000e+00  8.5565900039876230e-01  1.4702194839748890e+00  1.2038567041507604e+00  8.5485331025038458e-01  1.2032921368873994e+00  8.5513707681081697e-01  1.2591087420573479e+00  6.0920110251236292e-01  1.3671366936260394e+00  3.4049319341859513e-01  1.2702611152176131e+00  1.1543765240514874e+00  9.6279182774644845e-01  3.2162301899283963e-01  1.0269185696531451e+00  9.9893610424433865e-01  1.4774861974394407e+00  1.4238873562826846e+00  1.4950831794497170e+00  9.0446319088598359e-01  1.0233322503939890e+00  9.3748592050867297e-01  9.5487935740048535e-01  6.4076352364921363e-01  1.3006608376550739e+00  6.0128437743212371e-01  1.2101833399825539e+00  1.0762446891860360e+00  3.0951895229754334e-01  9.9117676088427220e-01  5.9906812889645644e-01  6.6354162175522757e-01  1.4509066186038413e+00  1.4524523301233905e+00  6.4953249668701196e-01  1.2422499952636454e+00  1.4943449232427131e+00  7.8137229118367191e-01  2.9713342980876678e-01  1.3559302363513457e+00  1.1847876928531067e+00  2.9427669711403476e-01  2.8190893453606186e-01  1.1654971689033873e+00  1.0985195516717832e+00  1.4221289165509201e+00  1.4264348061990200e+00  9.7886543879170673e-01  1.0868043035855164e+00  1.4917126919790604e+00  1.3805229016135254e+00  1.4802261071737868e+00  8.2081469441370714e-01  8.1621070533178697e-01  1.0720441616959226e+00  1.4952654952312088e+00  1.5062131819166729e+00  8.9171458350244870e-01  2.7153204839333489e-01  2.4690278665328219e-01  1.1162491130062915e+00  1.4318735765543944e+00  8.8441852659480780e-01  7.4245714954373854e-01  1.4065687243281138e+00  7.7169709826043431e-01  1.5030852983398268e+00  1.3213195483465321e+00  5.4635520592060871e-01  2.6554263021013941e-01  2.4645374535151690e-01  6.4598851030997095e-01  1.4372378582753826e+00  1.1682617544613019e+00  1.2172114190834014e+00  1.3076896387960062e+00  5.3779451310570281e-01  2.8798961866208844e-01  1.4560158557657363e+00  1.5031953982159649e+00  2.1984545511829820e-01  6.6686323277262283e-01  1.3233829739229512e+00  1.0664808695375416e+00  1.0055522330882141e+00  1.1598502635367831e+00  1.3303438572459032e+00  3.8347400425752859e-01  3.9112031100075556e-01  1.0071213953846658e+00  8.5520357560481208e-01  1.0814551498980660e+00  9.9977320281923754e-01  1.3597716269165818e+00  7.0629868525563733e-01  6.5046405100744553e-01  5.4679873821426395e-01  2.9442850589325376e-01  4.8238067160656978e-01  6.9429839619389977e-01  7.0338990861680517e-01  1.1026483299200345e+00  2.2903439285107566e-01  3.0924557994745683e-01  5.4515282311619584e-01  6.7632532337937135e-01  2.3457798646800412e-01  2.8908600526473555e-01  8.1041587889252786e-01  8.1055110583191270e-01  4.5232926750911479e-01  7.4853997827891616e-01  9.3152276785558330e-01  9.7484677797070374e-01  9.0628160794156498e-01  1.4328539500190660e+00  1.4179662219820033e+00  1.4801030154960451e+00  1.0997032260301332e+00  9.6657965706541449e-01  1.9486674232016055e-01  1.0085746648352270e+00  1.1755055790488405e+00  5.6040266484880086e-01  8.7186753890578272e-01  1.0482040192757498e+00  1.0159286235854723e+00  1.2319952914069887e+00  1.3302046280128559e+00  1.4948739990838846e+00  7.9633591344688248e-01  1.4835107348656460e+00  5.6075078667092504e-01  7.2653618311424295e-01  1.4729505766036641e+00  1.3042120102014021e+00  1.0886197171511565e+00  1.8895748954872077e-01  1.4462454424423568e+00  1.4862019007306972e+00  1.4019222857887217e+00  1.1205140768511179e+00  1.5019254943837497e+00  1.1475226135440706e+00  9.8920171716133087e-01  7.9642707139481583e-01  1.8128071784145158e-01  1.4423747733478345e+00  1.4962564473007374e+00  1.4951438471096339e+00  1.4289243264256186e+00  1.4558660751231025e+00  1.8577039966892470e-01  7.0802092854354315e-01  1.8025345229272202e-01  1.2909857282146284e+00  1.8069564502423671e-01  8.1723431363611920e-01  1.4945371242321972e+00  1.7617577054253591e-01  1.1799166280825550e+00  9.8027431238096085e-01  9.7925478729733340e-01  4.7973715453537003e-01  1.2875222052354600e+00  1.4953438978159321e+00  1.4945771337227340e+00  1.4969790087302743e+00  1.7302769651825672e-01  2.2036207046653383e-01  1.8033566987481656e-01  1.4637946795806902e+00  1.4036039432255027e+00  9.7998342117000947e-01  5.6551260009789761e-01  1.7562132258006655e-01  7.5744047023779015e-01  1.2120500265654512e+00  7.3412792193905707e-01  1.5041415591249270e+00  1.4312392389796222e+00  5.2728719422983017e-01  6.5303116117153315e-01  1.5032603015882482e+00  1.4688465537061466e+00  1.2437799950824830e+00  1.3728761549476574e+00  1.7976434076619016e-01  1.3543756040990169e+00  1.1425764558529730e+00  1.2449863418847527e+00  1.3451405759439972e+00  1.1790509937161935e+00  1.4798184627820270e+00  1.3801923506324323e+00  7.9134688857408275e-01  5.2019716543101235e-01  1.3434484866308372e+00  1.3886452730041210e+00  9.1287120185591986e-01  1.2265327798187164e+00  9.1038322134671146e-01  1.4075305080462239e+00  1.4576733213196431e+00  1.4347035475385956e+00  1.2715678499199814e+00  1.5000307413535652e+00  7.2033561063266227e-01  2.6830860475557006e-01  1.2715639085214137e+00  3.9627885788400069e-01  1.2630188879554469e+00  1.0462570555966024e+00  1.1558199220697327e+00  1.2481247742412112e+00  9.6786011736028188e-01  1.3994558895833589e+00  1.3574377723177964e+00  1.2089658226528828e+00  1.0792418381660700e+00  1.4684897702655160e+00  0.0000000000000000e+00  1.4989426895661275e+00  1.4898241632325822e+00  1.1067502266320897e+00  1.0971650363105288e+00  5.4415237068104372e-01  1.5014935267500713e+00  1.4826091733661817e+00  8.3759813529828042e-01  1.0839190256854825e+00  1.2725215282540809e+00  8.7709903381047316e-01  9.4985663245160534e-01  0.0000000000000000e+00  1.3644798956270829e+00  1.7582101093828728e-01  5.0018218920582924e-01  1.4709831798525199e+00  4.4451094605463543e-01  2.2036501399897779e-01  8.3897149344264987e-01  1.1590833719346079e+00  1.2421086173637652e+00  2.0006490062184568e-01  9.6735078203732128e-01  4.4795910434147873e-01  5.7233270981150963e-01  1.1868968805315299e+00  1.4110576234770038e+00  5.7087171505597112e-01  1.4098095186886264e+00  1.7607559639423506e-01  1.3483467124703212e+00  1.2482410962485100e+00  5.5371136022598888e-01  8.8960894319153194e-01  7.8563635681037780e-01  1.4679382236807039e+00  5.3528086794398544e-01  5.5703661325961862e-01  8.8859105681933981e-01  0.0000000000000000e+00  1.2880524880235371e+00  0.0000000000000000e+00  9.1630588012060643e-01  1.1647228019711569e+00  1.2252902387675646e+00  1.0206525482197510e+00  1.5037671939006498e+00  1.4841128123535496e+00  1.3874224616422464e+00  1.1131872185832752e+00  1.3069673023789259e+00  0.0000000000000000e+00  2.0084869542990011e-01  8.5478595340781971e-01  1.7301849623758558e-01  6.8545424550225797e-01  1.0856078377197298e+00  3.8249762023873918e-01  9.4596170638474653e-01  7.4065513909259495e-01  5.9848586054854203e-01  3.0037256665658374e-01  0.0000000000000000e+00  4.3934260790000929e-01  4.4919680704701420e-01  4.7813632549426399e-01  1.4980629966566197e+00  0.0000000000000000e+00  9.1716806174309640e-01  7.4548572799648327e-01  1.5013829560736471e+00  1.2941241534678825e+00  1.4274602141798454e+00  1.3942802519745612e+00  1.2892202347183790e+00  1.4167882420858855e+00  1.5028074267771796e+00  6.4147317651279889e-01  1.0053463841792283e+00  7.9786340692377522e-01  1.0299448733613690e+00  1.4720808659643647e+00  1.4815422866815002e+00  0.0000000000000000e+00  9.1403903681113541e-01  1.9587746240527140e-01  2.4253566318551339e-01  1.0736330357175385e+00  1.1250081962215261e+00  1.3744306887823701e+00  2.2603004958689629e-01  6.9726556229776337e-01  1.4335082667027095e+00  1.2238534709387010e+00  1.3698499665419670e+00  1.0755000262352525e+00  1.4479652716853819e+00  1.4931465183677479e+00  1.1202125443248983e+00  1.7910509773098790e-01  1.8998719617970466e-01  1.9588140943087065e-01  1.4073700650058847e+00  5.1647259327413886e-01  1.2061361600626759e+00  1.4761869644281911e+00  1.4424010393660469e+00  1.3878684005651059e+00  8.5581101306077600e-01  1.0260468044185647e+00  4.3201286877005479e-01  1.8591734952350614e-01  1.4526994326235518e+00  1.1197364374895471e+00  1.1948904233655648e+00  1.3551308592114428e+00  1.3469593445947345e+00  1.3343960148675762e+00  1.0817494718743370e+00  1.0411040037779646e+00  1.1906944052707611e+00  1.7314304157921412e-01  0.0000000000000000e+00  1.0459364111909282e+00  1.4740810164439098e+00  1.4788934537478924e+00  1.4091016205296618e+00  5.1314627087743236e-01  1.9436449439433701e-01  1.5033728359594096e+00  6.5702118182198543e-01  6.8250073464499428e-01  1.2045680582214915e+00  1.2616054586636192e+00  6.2122078157269722e-01  5.0223501674108673e-01  7.4564090558995855e-01  7.8213308307765284e-01  1.4874083800036952e+00  5.8669801866830917e-01  7.6778287435059700e-01  7.7544323188220532e-01  1.3044221301175769e+00  8.9833933814533062e-01  9.1738298973745691e-01  1.3584969748885971e+00  1.2893543029762145e+00  7.0278321604441052e-01  1.0872001547449659e+00  3.5213866773065278e-01  1.0347012728716951e+00  1.4345283018650381e+00  1.8484058057257391e-01  4.1807089587982360e-01  1.5009348230442787e+00  4.4019482627971507e-01  5.3432385996254328e-01  4.2161709431728334e-01  8.2158500103902543e-01  1.2529858294646445e+00  1.5040049405341205e+00  5.2128849327318938e-01  1.3299366575356335e+00  1.3942875146206635e+00  1.0047709649676206e+00  9.9536121859788640e-01  5.9272093966757045e-01  9.5911780595016072e-01  9.5432715423275638e-01  1.3681093750879074e+00  1.4120303911838230e+00  1.1575431281975446e+00  1.5027931238598569e+00  8.4081630759596915e-01  1.4678179795480577e+00  1.3294716415167911e+00  4.4273848012567990e-01  1.2450341077947071e+00  7.2551267879060688e-01  1.4879058941967163e+00  7.8387383208416161e-01  1.8346954519027384e-01  3.7461686624834595e-01  4.8533123754217239e-01  6.2553782862394447e-01  1.4674825113196177e+00  1.4261994424419260e+00  1.4563669092812717e+00  9.3995850700496630e-01  1.3466440995133477e+00  1.2903635259209172e+00  1.1380901406251192e+00  1.1749004467686268e+00  1.4954650141545516e+00  0.0000000000000000e+00  1.0027296978903260e+00  8.9384703481980243e-01  6.9224205139840533e-01  5.8343346760840653e-01  8.2507939056640400e-01  7.2153459991095947e-01  1.5012632931260610e+00  5.4317519338034037e-01  1.2408149557401793e+00  8.6435962020404666e-01  9.3251027982036039e-01  1.0724001522979127e+00  0.0000000000000000e+00  4.8142762247204790e-01  4.5819320035117095e-01  7.4244683887591523e-01  6.9188041902725228e-01  7.3588295915063506e-01  1.1698473867720529e+00  1.0793974179115957e+00  1.2948575886169773e+00  1.3530933946840873e+00  7.2607109473167974e-01  0.0000000000000000e+00  1.7376649497996183e-01  4.1250672726679366e-01  1.4753570305646446e+00  5.1875003690301991e-01  9.7805080513905240e-01  1.4385071407299654e+00  1.4895291384319354e+00  7.0696095359754463e-01  1.0302103295125091e+00  7.8250784720133904e-01  2.7614458351339582e-01  1.3919017959856685e+00  1.2653805816666088e+00  1.4953472196956310e+00  1.5043983740199560e+00  2.4006551491337327e-01  7.4428192758931766e-01  1.8235955274180340e-01  1.5040777246855530e+00  2.3556878417841504e-01  1.3640553313947976e+00  9.5457814557974674e-01  7.4235917816190389e-01  0.0000000000000000e+00  0.0000000000000000e+00  0.0000000000000000e+00  1.7246652700389348e-01  0.0000000000000000e+00  0.0000000000000000e+00  1.2893217725540285e+00  4.8260957960818746e-01  0.0000000000000000e+00  0.0000000000000000e+00  1.2896655194269480e+00  0.0000000000000000e+00  0.0000000000000000e+00  1.4955344517301854e+00  1.4953774310232872e+00  1.4271569866633718e+00  1.4275937703330359e+00  1.4954256159568546e+00  1.4960496024280281e+00  0.0000000000000000e+00  1.1191622634305098e+00  0.0000000000000000e+00  0.0000000000000000e+00  9.5368554519240645e-01  0.0000000000000000e+00  0.0000000000000000e+00  4.8225913268865978e-01  0.0000000000000000e+00  0.0000000000000000e+00  7.4387982981963141e-01  0.0000000000000000e+00  4.8155529362712562e-01  1.7461839764251461e-01  0.0000000000000000e+00  1.4267581139155072e+00  0.0000000000000000e+00  9.5420975632987926e-01  0.0000000000000000e+00  1.1202122810130999e+00  7.4306416184378998e-01  1.0251397918721459e+00  1.1562033181578066e+00  4.0970954463775994e-01  1.0384701995576617e+00  1.0251047344730044e+00  1.1871462319547823e+00  1.1859282831206268e+00  1.1071272823047922e+00  9.7254801530855606e-01  9.4951185387950165e-01  1.1567456218412104e+00  1.5006813134184577e-01  1.0012502181593443e+00  8.6540233382226328e-01  1.0939674706265015e+00  1.4248109315844741e+00  1.3035354394418899e+00  1.3703215474261650e+00  1.4955325199155565e+00  1.5152138836670173e-01  9.4371894643179299e-01  1.1032467514873578e+00  1.4782845633676323e+00  1.5030134638745227e+00  1.1830917504302434e+00  1.4949965851238189e+00  1.4683278496066823e+00  1.3915728242494672e+00  1.1737106036743261e+00  1.4936643470706858e+00  1.3771343039397912e+00  1.0230058838294944e+00  1.4519932669013424e+00  1.4883078229050497e+00  7.5171138521953484e-01  1.4354262239077584e+00  1.3368884482463517e+00  1.1524767144604775e+00  1.2954283490592780e+00  1.4612613806350396e+00  1.0655926416460031e+00  9.1267114399066840e-01  1.4965887261157282e+00  9.0297468307936746e-01  1.2478297468688988e+00  1.2976072350884869e+00  1.4812026620836980e+00  7.1192902871447405e-01  1.4501707242109814e+00  1.4844136372919507e+00  1.4993969067211539e+00  1.4706949295529987e+00  1.1251657957264460e+00  1.2368111344841530e+00  1.1298105277579407e+00  9.9852147826197679e-01  1.0398421252132932e+00  4.3121665729821795e-01  1.1944174501188221e+00  1.1265216435409837e+00  1.3449544880215276e+00  4.3561194842661632e-01  3.3215207278015163e-01  1.0010416300669258e+00  1.0834122485332824e+00  1.3486081682191677e+00  4.7617866698715389e-01  8.0626008489646783e-01  1.3400364210336164e+00  1.2839683529932764e+00  1.1936331357861065e+00  4.7191114378799687e-01  7.1693930989629795e-01  6.0970413343696617e-01  4.1428041182760078e-01  1.4559230886348657e+00  9.6585062842994407e-01  1.1454779028525359e+00  1.3713528311131347e+00  1.0150937338640444e+00  1.0683599347706361e+00  1.2468037469464566e+00  1.4309448253034326e-01  1.4842419407446452e+00  1.4549112592770679e+00  1.5011108530718964e+00  1.4914289015910158e+00  1.3176811231501371e+00  1.1886086082796554e+00  3.5772896425556450e-01  1.5009949775807856e+00  1.2316362747652621e+00  1.3406437063864087e+00  7.5217163206104287e-01  6.0175709750626982e-01  9.1998328125066631e-01  4.4540297325701073e-01  5.7873770051383977e-01  6.0512717823638329e-01  1.1455312280967682e+00  4.7445368711054459e-01  1.6196259946572822e-01  1.4531808509669648e+00  1.7361876375709756e-01  1.1644133213269110e+00  1.5004897988565569e+00  9.1648359781135080e-01  8.5824517876026818e-01  1.2298385747105511e+00  1.4855989343131890e+00  8.4179382208154341e-01  1.4473504478934773e+00  1.5554668161182214e-01  3.5244090188312255e-01  2.4937904943079656e-01  9.1591732637086409e-01  8.4808622757714214e-01  9.4716121756343707e-01  1.4528768866714858e-01  7.4258532713289460e-01  1.1018127003627025e+00  3.1998449919068184e-01  1.4220587594050382e+00  1.6825315293300117e-01  4.5868312581784743e-01  6.6333916027798800e-01  5.7401331861455251e-01  4.3460412334085602e-01  1.2985120226180455e+00  1.04979