<?xml version="1.0"?>
<VTKFile type="UnstructuredGrid"  version="0.1"  >
<UnstructuredGrid>
<Piece  NumberOfPoints="2513" NumberOfCells="4852">
<Points>
<DataArray  type="Float64"  NumberOfComponents="3"  format="ascii">-1 1 0  -1 -1 0  1 -1 0  1 1 0  0 -1 0  1 0 0  0 1 0  -1 0 0  0 0 0  -1 -0.5 0  -0.5 -1 0  -0.5 1 0  -1 0.5 0  1 -0.5 0  0.5 -1 0  1 0.5 0  0.5 1 0  0.4166666666666666 -0.4166666666666667 0  -0.4166666666666667 0.4166666666666667 0  -0.25 -0.5 0  0.5 0.25 0  -0.4861111111111112 -0.06944444444444445 0  0.0732758620689655 0.507183908045977 0  -0.625 -0.625 0  0.625 0.625 0  0.7380952380952381 -0.25 0  -0.7099116161616161 0.2105429292929293 0  -0.25 0.7380952380952381 0  0.105392156862745 -0.6348039215686275 0  0.6770833333333334 -0.6770833333333333 0  -0.6770833333333334 0.6770833333333334 0  0.3472222222222222 -0.06944444444444446 0  -0.7264957264957265 -0.3044871794871795 0  0.3141940982507127 0.7297313660835709 0  0.02049587951122483 -0.3227479397556124 0  -0.2690972222222223 0.1475694444444444 0  0.3859500089908372 -0.7274430156831472 0  -0.2228477945123298 -0.1761765495248019 0  0.2182539682539683 0.1884920634920635 0  0.75 0.375 0  -0.145442219440968 -0.7602211097204841 0  0.7088913690476191 0.0427827380952381 0  -0.75 -1 0  -1 -0.75 0  1 0.75 0  0.75 1 0  -0.7439982703698937 -0.04614153195464455 0  -0.4609235096577606 -0.3356498099556895 0  0.4063134471431929 0.4895621842856023 0  0.25 -1 0  -0.25 -1 0  -0.75 1 0  0.75 -1 0  -1 -0.25 0  -1 0.25 0  1 -0.25 0  -0.25 1 0  1 -0.75 0  -1 0.75 0  0.25 1 0  1 0.25 0  -0.4041423272138783 -0.7597141090712928 0  0.06500839607911253 0.7578103030529481 0  -0.1572801182352047 0.3838997021864289 0  -0.6528005242053915 0.4409494757946086 0  -0.4930160984848485 0.1544744318181818 0  -0.4732142857142858 0.7752976190476191 0  0.6398809523809523 -0.4538690476190476 0  0.5166054117396399 -0.2161233620965164 0  -0.002273787244753427 0.2232363985975174 0  0.1500564496765022 -0.1524955293952667 0  0.2016720420046758 -0.4410343282803009 0  -0.08495178036419618 0.6274139771124571 0  -0.8367311471133162 0.3642591720794645 0  -0.8333333333333334 -0.625 0  -0.594323836800685 -0.8231079456002283 0  -0.4466957714776065 -0.5349126855671806 0  0.8125 0.5625 0  0.78125 0.78125 0  0.5091392650016769 0.7947130883338923 0  0.125 -0.8382681931833136 0  -0.8184523809523809 -0.8184523809523809 0  -0.07781530426104531 -0.5819319697006881 0  0.5085055196703295 0.04967610411902112 0  0.2918471072074933 -0.276017202318847 0  0.5120763537765269 -0.5898771553229597 0  0.625 -0.8585349462365591 0  0.8158532234335381 -0.8158532234335381 0  -0.5198088446315396 0.5739411553684605 0  -0.8585349462365591 0.625 0  -0.8150493805516597 0.8156205699829586 0  0.8585349462365591 -0.625 0  -0.2688268348649726 0.5439331383603209 0  0.8242100426758139 -0.4436043596336612 0  0.5833756314287952 0.4479378157143976 0  0.8690476190476191 -0.125 0  -0.125 0.8690476190476191 0  -0.8692745600729823 0.125 0  0.8696725120759167 0.125 0  -0.625 0.8711516477451908 0  0.2339522463269718 0.3879558377955778 0  0.2453709502295031 0.5655822922838026 0  0.1730610651637797 0.02021709580868947 0  0.3245402594056757 -0.5644672020485209 0  -0.7291666666666666 -0.4816595441595442 0  -1 -0.375 0  -0.5811140848639904 -0.2127276307675001 0  0.673332592838314 0.2158348143233718 0  0.375 1 0  -0.5714768890989919 0.2985103444040069 0  -1 -0.125 0  -0.8453692574786325 -0.1875 0  -0.3144549134065865 -0.02408675326008025 0  -0.2898414972096258 -0.3336092734780093 0  -0.1075052092206287 -0.4224330421314983 0  -0.05043970703604117 -0.1652278959397459 0  0.6459672950297897 -0.1113415301525317 0  0.4645210271029513 0.6398480556579343 0  0.3512863754411909 0.0937979496253573 0  -0.6063160985568274 0.03891469652249891 0  -0.3428819444444445 0.8690476190476191 0  0.625 1 0  -0.1602164796159982 0.02697860906625157 0  0.04648110064133829 -0.4808416424239687 0  1 0.875 0  -0.3836102479201657 0.6484936449177356 0  -0.3776011723096096 0.263078478984336 0  -0.6024978259969829 -0.3949628096211138 0  0.125 1 0  0.2010781308272777 0.8456221018461906 0  0.2822509696388829 -0.845902544691141 0  -0.3285533674953515 -0.6289773550938936 0  0.3461306793221754 0.278777492464833 0  0.4737475672408696 -0.8508448959534423 0  0.2384632828836344 -0.7029523187242811 0  -0.004777287059791593 0.3759269695907358 0  -0.8499735021850066 -0.3912320205328522 0  0.1222536293721587 0.2963971539625205 0  -0.3769456520999688 -0.203572526805711 0  -0.2749617205755651 -0.8464290792698902 0  0.004805888512766143 -0.747174355248311 0  -0.125 -1 0  -0.06001061822252458 -0.8724007765244854 0  0.875 0.4375 0  0.854421179608893 0.271342359217786 0  0.875 1 0  -0.1499861095763589 0.2358309656934888 0  0.3381943639137225 0.8663061796405532 0  -0.7853090110442228 0.4998412775277108 0  0.7398165998560814 -0.5535192694951373 0  0.1580042122341573 -0.3100246140259917 0  -0.7291666666666667 -0.7142857142857142 0  -0.375 -1 0  0.6483368386154684 0.8514905990110488 0  -0.1295370103291928 -0.2826118305021242 0  0.07458201853700455 0.1123894386563915 0  0.6146465857036327 -0.3161203659316075 0  0.5551898493894731 -0.740296118159085 0  0.375 -1 0  0.482702798370208 -0.084133350091034 0  0.87890625 0.68359375 0  -0.05917195534525846 0.4971092425697621 0  0.1260710309213975 0.6343750312956699 0  0.8690476190476191 -0.3077066815262848 0  -0.2912010232560567 0.3668168386732139 0  -0.875 1 0  -1 0.875 0  1 -0.875 0  0.875 -1 0  -0.8689564281364567 -0.006189266075306407 0  -0.7449425635110547 0.08458938160051771 0  -0.7150266761936593 -0.1739444581417552 0  -0.5260034831318311 -0.711099823962112 0  -0.4724626808827322 -0.871722230709409 0  0.4734436795977052 0.377714794132168 0  -0.875 -1 0  -1 -0.875 0  0.6927189078571988 0.5156567235715964 0  -0.3742497615796874 -0.4296005251260107 0  -0.1969436423297711 -0.6387157229772615 0  -0.6179496409766825 -0.08933356056510935 0  -0.424405057115988 0.04452428810878029 0  -0.08479048335844169 0.1279607007132633 0  0.003830300099055113 0.8712085230656206 0  0.8748778838820267 -1.379218479898026e-05 0  -0.375 1 0  -0.625 1 0  1 0.125 0  -0.125 1 0  1 -0.375 0  1 -0.125 0  1 -0.625 0  0.625 -1 0  0.125 -1 0  -0.625 -1 0  -1 -0.625 0  -1 0.125 0  -1 0.375 0  -1 0.625 0  1 0.375 0  1 0.625 0  0.6325660748712082 0.3335187599557389 0  -0.06420945895056573 0.7549874027425891 0  -0.8769015540914771 0.2478802253893416 0  0.871875 0.871875 0  -0.6868091492840067 0.3270978624973681 0  -0.5363597469565949 0.412994850055505 0  -0.6803734992638302 0.5574295000651103 0  -0.7076253581162534 -0.8803439094224437 0  -0.8778089002295137 -0.5106896447504627 0  -0.3860184984222981 0.530566778071246 0  0.6109900617121508 0.1128453077697081 0  0.3896945134930274 -0.1915382873255086 0  0.7605656944697778 -0.06822134873122943 0  0.3576151269893478 0.5948388411612135 0  -0.5689902680792265 -0.5143596830118065 0  0.6262446286847614 -0.5735657901943212 0  0.2030558252325225 -0.5625263842513452 0  0.6123273142928579 0.7407533260723429 0  0.4016460890123554 -0.3042863223111857 0  -0.59039693199147 0.7578418819188018 0  0.7276932493917544 -0.3705808024528924 0  0.5222536818742854 -0.4713886230400014 0  -0.5101986527137737 0.8848365765607674 0  0.510560172809238 0.5356013299918891 0  -0.3603569195756083 0.75823710606415 0  0.1967279277813232 0.728226870058472 0  -0.6086880986371127 0.1545624071548516 0  -0.38105366729386 0.1511189987807864 0  -0.2944659463671584 -0.7359061804869591 0  0.5060729154966499 -0.3475227845833823 0  -0.09281616240412746 -0.06197858250969457 0  0.7649739583333334 0.6673177083333334 0  0.7628906249999999 0.890234375 0  -0.2666864184909611 0.2585504071132311 0  0.3635064892129658 0.3878003602709461 0  -0.2339409722222222 0.8901937905844155 0  -0.1718792125974916 -0.8957733325456778 0  0.1001768566329531 0.4023510017391879 0  0.3120260172693757 -0.4540546875576884 0  0.7804062804433681 0.1896628610854537 0  0.4087715451998049 0.187961780041608 0  -0.1584963477271457 0.5451611892421655 0  -0.8926817849258324 0.463022006336401 0  0.2338091473445219 -0.07576267331277289 0  0.08171112182813692 -0.2349087687359925 0  0.04635385178956847 -0.1044635073718474 0  -0.4377391632114205 -0.6448874471423088 0  -0.1907678351227189 0.6480215912813945 0  0.300605946475244 0.4741444604171038 0  -0.2145033720757486 -0.06751709909419711 0  0.6069191921170397 -0.005492331448357812 0  0.0214718770761248 0.6032397936031719 0  0.5476675683364878 0.8992752415326501 0  0.4387475014316537 0.9093708953002239 0  -0.4932997685306436 -0.4381009159993523 0  0.2515197695339056 -0.1791673369138964 0  -0.7291666666666667 -0.6088789682539681 0  -0.9166666666666667 -0.6875 0  0.620579540363709 -0.2122431523583302 0  -0.484950136419973 0.6719440339397442 0  0.2857044415400258 0.0137589173127316 0  -0.8945708364098356 -0.288306105327986 0  0.4043102720140535 0.7842914560451557 0  0.04123256238752064 -0.9026968245801402 0  0.2003676884403109 -0.9091888601740487 0  0.1068775558538842 -0.7373377130403223 0  -0.4804566783514427 -0.1763307203045643 0  0.108286342087769 -0.3993789328997278 0  -0.191883080105361 -0.3640821726430649 0  -0.07025064492006244 0.2984876656890053 0  -0.7039324641409584 0.788312126296613 0  -0.7311286585775438 0.8932502354831682 0  0.5171409396884947 0.1503852691889257 0  0.4229392823658633 -0.003216522184234835 0  -0.5621736087218259 -0.919558629836806 0  -0.626474064879544 -0.7266572613636506 0  0.2446828746617422 0.2867616783302419 0  0.1759429608742923 0.4776611759306416 0  -0.3468240303741654 -0.5260416435617549 0  -0.7465808808425306 0.4069574477998361 0  -0.7819962170660292 0.2802441065650652 0  -0.3742623214119594 -0.8547800509641984 0  0.1014498009713561 0.8506721983266377 0  0.4285217620918213 -0.5230190595570253 0  0.4091738370487775 -0.6256346204225141 0  0.78125 0.46875 0  0.90625 0.53125 0  -0.4791801348852565 0.2553992655702126 0  0.7843318610782772 -0.7086046956885941 0  0.8909728264971901 -0.7355183796514634 0  0.7041908166528879 -0.7830649143180282 0  0.7311821352
[...]
<PointData  Scalars="velocity-2"> 
<DataArray  type="Float64"  Name="velocity-2"  format="ascii">0.0000000000000000e+00  0.0000000000000000e+00  0.0000000000000000e+00  0.0000000000000000e+00  0.0000000000000000e+00  1.4756380969195484e+00  0.0000000000000000e+00  1.4756000223101899e+00  1.4746194751602839e+00  1.1131730711822916e+00  0.0000000000000000e+00  0.0000000000000000e+00  1.1125009219441038e+00  1.1133030785819924e+00  0.0000000000000000e+00  1.1129161445578939e+00  0.0000000000000000e+00  1.2242902732148753e+00  1.2241572700785155e+00  1.1137297552712908e+00  1.3846414883450135e+00  1.4685465267148936e+00  1.1018642392698617e+00  9.0596378557617352e-01  9.0628234261281382e-01  1.3850063916683384e+00  1.4109593051757543e+00  6.7716555551094426e-01  8.8776562592466002e-01  8.0574673007620723e-01  8.0610405677283103e-01  1.4679979136813532e+00  1.3414596578410896e+00  6.9585618245549363e-01  1.3243259067659070e+00  1.4437909330430554e+00  7.0066826518814651e-01  1.4292113307730010e+00  1.4233670953464101e+00  1.2710606135409290e+00  6.2795107865178235e-01  1.4725821294045229e+00  0.0000000000000000e+00  6.5165913078158044e-01  6.5189187406346927e-01  0.0000000000000000e+00  1.4724700328409337e+00  1.3113930821105872e+00  1.1273132211469667e+00  0.0000000000000000e+00  0.0000000000000000e+00  0.0000000000000000e+00  0.0000000000000000e+00  1.3850504686346465e+00  1.3850934537078148e+00  1.3849891077225136e+00  0.0000000000000000e+00  6.5169067323694052e-01  6.5164072747577739e-01  0.0000000000000000e+00  1.3852967778475378e+00  6.2981328458368058e-01  6.3360866047526121e-01  1.2619396107917935e+00  1.1936252696633600e+00  1.4401648996382328e+00  5.9410142331616500e-01  1.1764233933539143e+00  1.4083641433914622e+00  1.4032246538185775e+00  1.4411314315474673e+00  1.1936549835052657e+00  9.0150758358368543e-01  1.2835037574270309e+00  9.0640026795338491e-01  4.8002173825196248e-01  1.0603258422678012e+00  1.0157820739198753e+00  5.8009631479871970e-01  5.4816850317588739e-01  4.4243444004913568e-01  4.9224315935817059e-01  9.8288073205819093e-01  1.4716912129434172e+00  1.3648412373405154e+00  9.6874726645111864e-01  3.9163133857936999e-01  4.9847848529680400e-01  9.9597062391550706e-01  9.0618794917034917e-01  4.9863275145929109e-01  9.0653208923259210e-01  1.0461029328451668e+00  1.1903720942102625e+00  1.1841296642975074e+00  1.4524144193545359e+00  3.6423715041249383e-01  1.4529438219472659e+00  1.4525819275820182e+00  3.5898593722433619e-01  1.2571227992139993e+00  1.0104197319723756e+00  1.4747481980719199e+00  1.0122361822341914e+00  1.1393716481514191e+00  1.2721100840954376e+00  1.4105137033437405e+00  1.4077453617062101e+00  0.0000000000000000e+00  1.3457638821355467e+00  1.4530948377580353e+00  1.4241676154688836e+00  1.4736673726473544e+00  1.3144392614002398e+00  1.2166483206882572e+00  1.4360631466214435e+00  1.4571712809609627e+00  8.7849239705476001e-01  1.4625739702843052e+00  1.4729641199789321e+00  3.6388634172911422e-01  0.0000000000000000e+00  1.4751262097829267e+00  1.1398322794360154e+00  3.4932498784223542e-01  8.6201195327726909e-01  1.3744559544264203e+00  1.2498120886398496e+00  0.0000000000000000e+00  4.2446825856075521e-01  4.2328199076012829e-01  8.9917889409279750e-01  1.3627844305248928e+00  4.1129478077502324e-01  7.5222031527565292e-01  1.2708141198868175e+00  1.2535762059224302e+00  1.3481897185350828e+00  1.4145496630756840e+00  4.2256682023829989e-01  6.5758798659287765e-01  0.0000000000000000e+00  3.5563946878986918e-01  1.1982656305955737e+00  1.3688860099731526e+00  0.0000000000000000e+00  1.3949492069158160e+00  3.7167420301055831e-01  1.1133698294609853e+00  1.0300060434430058e+00  1.3361486085790204e+00  7.2919712487311350e-01  0.0000000000000000e+00  4.0864523766677463e-01  1.3596658585459036e+00  1.4568782914205698e+00  1.3308556866885366e+00  6.7238689534740526e-01  0.0000000000000000e+00  1.4646787521635278e+00  7.9290586724037615e-01  1.1171572493681010e+00  8.8858276136498671e-01  1.3383002610484576e+00  1.2806216904968046e+00  0.0000000000000000e+00  3.4988707517591350e-01  3.4935292849327598e-01  0.0000000000000000e+00  1.4753007289456639e+00  1.4639693109742886e+00  1.4310892191782423e+00  7.3507349919102105e-01  3.5769713609720777e-01  1.2677429133756852e+00  0.0000000000000000e+00  3.4944168440227735e-01  1.0898909595860742e+00  1.2081251058036093e+00  8.8074963025838227e-01  1.4638477456436798e+00  1.4720243110619489e+00  1.4513837844485817e+00  3.5953818614475430e-01  1.4751615415989912e+00  0.0000000000000000e+00  0.0000000000000000e+00  1.4532020887398329e+00  0.0000000000000000e+00  1.2720023714358679e+00  1.4530907765152523e+00  9.0623706072552679e-01  0.0000000000000000e+00  0.0000000000000000e+00  0.0000000000000000e+00  9.0637906292831238e-01  1.4528538291046780e+00  1.2718713313485084e+00  9.0674215135696201e-01  1.2722424509109613e+00  9.0649672228700306e-01  1.3143451829636827e+00  6.4008858675162184e-01  1.3865715020590501e+00  3.5666483570870400e-01  1.3205466020718954e+00  1.2284470925536835e+00  1.0238795371111358e+00  3.3605469024897772e-01  1.0972104382558738e+00  1.0664027947597170e+00  1.4567241246086473e+00  1.4223111437563865e+00  1.4684055299865550e+00  9.6009458098269063e-01  1.0916524931620837e+00  9.9674982533753265e-01  1.0152371812045544e+00  6.7197357357953158e-01  1.3413833305347584e+00  6.3383273224330583e-01  1.2762419423969049e+00  1.1538034447669760e+00  3.2380719025680688e-01  1.0585930652186566e+00  6.3328616273681948e-01  6.9942742717915618e-01  1.4402833248827738e+00  1.4421671539268306e+00  6.8248733319348176e-01  1.3005637024225316e+00  1.4698260297553498e+00  8.2540731173919624e-01  3.0891668634082231e-01  1.3781119530413197e+00  1.2575891232653660e+00  3.0899593993755770e-01  2.9375121580307023e-01  1.2408680529855578e+00  1.1762703448159662e+00  1.4226491142579420e+00  1.4238664434019357e+00  1.0438282143651796e+00  1.1645061566389372e+00  1.4669781393417622e+00  1.3956496449736078e+00  1.4595060069146670e+00  8.6962558294292525e-01  8.6265612205949593e-01  1.1489415298503718e+00  1.4680761698340887e+00  1.4757452695437570e+00  9.4559417007804547e-01  2.8537878740831124e-01  2.5788394538269405e-01  1.1973364865210741e+00  1.4281758287135591e+00  9.3597062442155599e-01  7.8463837670502301e-01  1.4098237234796605e+00  8.1628218611926084e-01  1.4747254004939323e+00  1.3549871268847677e+00  5.7342780917410985e-01  2.7526610398017848e-01  2.5774410807355519e-01  6.7887437017613439e-01  1.4299870883750638e+00  1.2438975496947291e+00  1.2836540852948777e+00  1.3462246246050324e+00  5.6373307075529944e-01  3.0121866354388210e-01  1.4424181264252980e+00  1.4748680493539037e+00  2.2988442757072761e-01  7.0284642742540504e-01  1.3560176022950177e+00  1.1446298147344920e+00  1.0737787556115916e+00  1.2357263314115468e+00  1.3610850978640732e+00  4.0077948253601803e-01  4.1152520734432463e-01  1.0787403473909867e+00  9.0485836907253081e-01  1.1579300065680633e+00  1.0661033651089216e+00  1.3808510215599430e+00  7.4157918630263664e-01  6.8314259385842047e-01  5.7563558967144879e-01  3.0783056347633381e-01  5.0594538625682350e-01  7.3160024524950973e-01  7.4185682266109465e-01  1.1824155012349091e+00  2.4181105602726463e-01  3.2643033553189360e-01  5.7311744483028337e-01  7.1312333594997979e-01  2.4682475492099479e-01  3.0309024863108852e-01  8.6062666132573362e-01  8.5648228101716062e-01  4.7417356503250591e-01  7.9120881300988188e-01  9.8908555005228016e-01  1.0399885494618444e+00  9.6257251522703469e-01  1.4273988191057576e+00  1.4176532812547600e+00  1.4600572913615260e+00  1.1769173597459293e+00  1.0302772299187715e+00  2.0335758620417624e-01  1.0765863231729873e+00  1.2490005618636073e+00  5.8818161393612423e-01  9.2486505446165734e-01  1.1231122781107350e+00  1.0882166486657476e+00  1.2922652739808993e+00  1.3620501573377539e+00  1.4681926835909176e+00  8.4290982754355415e-01  1.4615440531514086e+00  5.8888693052308116e-01  7.7099781474039508e-01  1.4542831902331226e+00  1.3454915682096555e+00  1.1660072528671854e+00  1.9740044179798341e-01  1.4369620289894893e+00  1.4625687079950700e+00  1.4077242381680950e+00  1.1981887350492131e+00  1.4742697128886633e+00  1.2230041065429635e+00  1.0571227811731605e+00  8.4657329753848276e-01  1.8831756674545974e-01  1.4356895551953210e+00  1.4699616243359803e+00  1.4701452076506398e+00  1.4254142461327250e+00  1.4440280790303517e+00  1.9394897403817260e-01  7.4794540363006912e-01  1.9065749675715049e-01  1.3341598205033189e+00  1.8875027005852674e-01  8.6697764577000003e-01  1.4698665400510975e+00  1.8388663149004683e-01  1.2525323175827745e+00  1.0432670507227304e+00  1.0430343526657371e+00  5.0348020548040762e-01  1.3338721363697668e+00  1.4695695730061982e+00  1.4698239292315123e+00  1.4696340055306061e+00  1.8056882337186200e-01  2.3027918202011918e-01  1.8896314374963588e-01  1.4490444824361304e+00  1.4094668944117905e+00  1.0456449632946199e+00  5.9394673094647887e-01  1.8172397281957672e-01  8.0292545753771860e-01  1.2774381671223278e+00  7.7514125942373802e-01  1.4740826894395525e+00  1.4273375534715877e+00  5.5285061259627966e-01  6.8560844732835546e-01  1.4736874032256164e+00  1.4511090823404358e+00  1.3017697705233655e+00  1.3918476737672956e+00  1.8787607482453669e-01  1.3768106736759296e+00  1.2185289929303738e+00  1.3043939552440036e+00  1.3703715985096401e+00  1.2507184264338682e+00  1.4591890304505359e+00  1.3942480653593308e+00  8.3599687394095012e-01  5.4555128633796146e-01  1.3708406185338393e+00  1.3994078764235260e+00  9.6949600746943665e-01  1.2899669733979751e+00  9.6592005839729145e-01  1.4108678908097894e+00  1.4447853173568530e+00  1.4292684011147370e+00  1.3213737926263773e+00  1.4734100684458507e+00  7.5978802801426870e-01  2.8151563181551381e-01  1.3216980995406629e+00  4.1191368687161700e-01  1.3179020284371137e+00  1.1224976762753580e+00  1.2328123556243766e+00  1.3071278278521619e+00  1.0309938000631140e+00  1.4065214437603293e+00  1.3786270644571013e+00  1.2752289625203634e+00  1.1563441059916633e+00  1.4522412350774292e+00  0.0000000000000000e+00  1.4728720159343380e+00  1.4645949725780409e+00  1.1866134303422140e+00  1.1756026165865054e+00  5.7164214263816793e-01  1.4750495062733708e+00  1.4611587114563478e+00  8.8705454003136486e-01  1.1615348252480857e+00  1.3228519013496600e+00  9.2992709749074531e-01  1.0117914914803430e+00  0.0000000000000000e+00  1.3839106824900613e+00  1.8223811440177023e-01  5.2525695170364817e-01  1.4534738857858223e+00  4.6676082731294949e-01  2.2986566245989487e-01  8.8892606996560863e-01  1.2358354173121162e+00  1.3013215607789415e+00  2.0860118945141379e-01  1.0298591219936724e+00  4.7051745104971970e-01  6.0224705837089676e-01  1.2590042492744082e+00  1.4133939538389020e+00  6.0091892586691120e-01  1.4141336719036766e+00  1.8170189413950447e-01  1.3744059603486420e+00  1.3052899342505879e+00  5.8098099812803139e-01  9.4489804820601830e-01  8.3130455563886740e-01  1.4509463612226097e+00  5.6263694493888283e-01  5.8485821906882929e-01  9.4246095217326953e-01  0.0000000000000000e+00  1.3316447980307342e+00  0.0000000000000000e+00  9.7432553658386456e-01  1.2394746034913855e+00  1.2866683310147358e+00  1.0897179458472699e+00  1.4751182147334403e+00  1.4616569015420073e+00  1.4001444225944761e+00  1.1927084261516314e+00  1.3448930541936672e+00  0.0000000000000000e+00  2.1095900314000934e-01  9.0578066196306117e-01  1.8030637984008355e-01  7.2297781593166999e-01  1.1618884544974410e+00  4.0169182839443185e-01  1.0075907681128105e+00  7.8205277247232652e-01  6.2939711135573928e-01  3.1257257118462067e-01  0.0000000000000000e+00  4.6461896274061182e-01  4.7035062328848559e-01  5.0222549784275872e-01  1.4721849628914803e+00  0.0000000000000000e+00  9.7545982772911632e-01  7.8872891887802510e-01  1.4735847806005020e+00  1.3359374966540836e+00  1.4241254229075042e+00  1.4026304539691210e+00  1.3344000994428133e+00  1.4178075430633577e+00  1.4743376318739314e+00  6.7781999928448322e-01  1.0750930333236202e+00  8.3857132293480474e-01  1.1000862282194064e+00  1.4550219569447196e+00  1.4616249667900219e+00  0.0000000000000000e+00  9.7008832908433484e-01  2.0649763338053465e-01  2.5160333006130736e-01  1.1502299909292377e+00  1.2033833111149390e+00  1.3900168920547018e+00  2.3635129534660673e-01  7.3380207465264780e-01  1.4294938436203426e+00  1.2876659296726012e+00  1.3868750032357513e+00  1.1530221310854818e+00  1.4384929919044924e+00  1.4671351573194846e+00  1.1978336144853103e+00  1.8520510069526394e-01  1.9888631886997329e-01  2.0327692414267540e-01  1.4118170504403340e+00  5.3872090044525811e-01  1.2736460562045706e+00  1.4558419864302332e+00  1.4335186316285893e+00  1.3992299808722501e+00  9.0811417797951477e-01  1.0962405525732308e+00  4.5228997998753523e-01  1.9242078144756564e-01  1.4407229655744120e+00  1.1985576066347310e+00  1.2653940479800814e+00  1.3763389786744014e+00  1.3718357347978700e+00  1.3668876500501586e+00  1.1570567278766584e+00  1.1134893149270526e+00  1.2603325088878512e+00  1.8167230586037386e-01  0.0000000000000000e+00  1.1220331958076053e+00  1.4553682470022247e+00  1.4590884508883128e+00  1.4126711183872931e+00  5.3945796796073475e-01  2.0349838352428007e-01  1.4749346480451779e+00  6.8979778310710171e-01  7.2145021540905296e-01  1.2694816382790006e+00  1.3159076973721213e+00  6.5286893909186583e-01  5.2781894822182851e-01  7.8861685236422774e-01  8.2456076183955107e-01  1.4643843195431245e+00  6.1494790407164523e-01  8.1019272354943828e-01  8.2086944375543580e-01  1.3435993517646463e+00  9.5258805650822265e-01  9.7533724413100209e-01  1.3798962844582014e+00  1.3344125064306251e+00  7.4212166344528219e-01  1.1653342144054193e+00  3.7082123749805040e-01  1.1069748717770336e+00  1.4286084914276982e+00  1.9410754198241095e-01  4.3749796495445498e-01  1.4729974401274624e+00  4.6205510246304310e-01  5.6100534244397560e-01  4.4245508838157677e-01  8.7085255294922048e-01  1.3090968577218489e+00  1.4755158520129839e+00  5.4491387761386889e-01  1.3606624073724702e+00  1.4037502803084807e+00  1.0731706008275994e+00  1.0647654819727437e+00  6.2532655374555646e-01  1.0224454837423065e+00  1.0161744832775446e+00  1.3859119796231145e+00  1.4145046888447752e+00  1.2340860993393858e+00  1.4747057263685177e+00  8.8945783148939273e-01  1.4520344183123217e+00  1.3606252971944459e+00  4.6367945780717584e-01  1.3018960340992460e+00  7.6806729286157494e-01  1.4650258258905093e+00  8.3080222933069736e-01  1.9159651818885826e-01  3.9321246968945928e-01  5.1261713772341155e-01  6.6061614588850692e-01  1.4506174155228690e+00  1.4245342777441050e+00  1.4439706686028730e+00  9.9911538408183131e-01  1.3731758388407771e+00  1.3338047554115349e+00  1.2158159104973176e+00  1.2497332465305986e+00  1.4693415011637823e+00  0.0000000000000000e+00  1.0694800773609108e+00  9.4580881442327358e-01  7.3082024420721958e-01  6.1268527083865709e-01  8.7021887003868637e-01  7.6225622939034565e-01  1.4742467139432613e+00  5.6795581183792121e-01  1.3003151540907942e+00  9.1593521586772308e-01  9.9226057106818577e-01  1.1474451738836755e+00  0.0000000000000000e+00  5.0618734944728250e-01  4.8020671659790870e-01  7.8517584035205201e-01  7.3065535635686230e-01  7.7814225961621442e-01  1.2430683876236828e+00  1.1571523187253030e+00  1.3374101411246098e+00  1.3766138860323331e+00  7.6567212587108591e-01  0.0000000000000000e+00  1.8265834403550388e-01  4.2815356959476036e-01  1.4565037592327164e+00  5.4592219965539612e-01  1.0429007344882890e+00  1.4328544620074419e+00  1.4657961957527250e+00  7.4825359368419142e-01  1.1053891659192772e+00  8.2895594410487627e-01  2.8995144478458396e-01  1.4000381647851852e+00  1.3183121945160292e+00  1.4699858638589243e+00  1.4747317922622032e+00  2.5293668618557830e-01  7.8640419407333506e-01  1.9134361483559953e-01  1.4756506526929942e+00  2.4745484009694677e-01  1.3840816502395985e+00  1.0157177349072612e+00  7.8510825502981041e-01  0.0000000000000000e+00  0.0000000000000000e+00  0.0000000000000000e+00  1.8062853008426416e-01  0.0000000000000000e+00  0.0000000000000000e+00  1.3344814228985933e+00  5.0664828685040186e-01  0.0000000000000000e+00  0.0000000000000000e+00  1.3342349743749813e+00  0.0000000000000000e+00  0.0000000000000000e+00  1.4697067382525946e+00  1.4694679063634437e+00  1.4245392315187848e+00  1.4245254531519433e+00  1.4697350707283567e+00  1.4699322265992840e+00  0.0000000000000000e+00  1.1985484404613549e+00  0.0000000000000000e+00  0.0000000000000000e+00  1.0154624499166960e+00  0.0000000000000000e+00  0.0000000000000000e+00  5.0616424203557597e-01  0.0000000000000000e+00  0.0000000000000000e+00  7.8501165022371633e-01  0.0000000000000000e+00  5.0626237880853986e-01  1.8165774764813244e-01  0.0000000000000000e+00  1.4247202708880584e+00  0.0000000000000000e+00  1.0159157422357430e+00  0.0000000000000000e+00  1.1984166700786674e+00  7.8491019253452654e-01  1.0950016237933533e+00  1.2330543870539266e+00  4.2912407492355664e-01  1.1138619161274275e+00  1.0965397088731532e+00  1.2568133759628628e+00  1.2562282730704557e+00  1.1855676582522574e+00  1.0355925134006512e+00  1.0117401112503288e+00  1.2325824096103324e+00  1.5670811518774561e-01  1.0674854244528711e+00  9.1898716596922547e-01  1.1724099413189513e+00  1.4245734464249760e+00  1.3443763919706833e+00  1.3883334469573747e+00  1.4687105050664246e+00  1.5824288025607425e-01  1.0042537915063006e+00  1.1827064251796444e+00  1.4582579733078163e+00  1.4753716736650710e+00  1.2550313776567341e+00  1.4682980732573250e+00  1.4516463500041088e+00  1.4019998982397825e+00  1.2460300914973392e+00  1.4696469233320608e+00  1.3924739248431512e+00  1.0967887013488198e+00  1.4401898088449825e+00  1.4644648207409612e+00  7.9408257147628780e-01  1.4297419135746932e+00  1.3668844134191911e+00  1.2278086466107998e+00  1.3380779942104886e+00  1.4466162728788150e+00  1.1439719865143367e+00  9.7078349860503799e-01  1.4702981196544544e+00  9.5938938354319592e-01  1.3050658882064341e+00  1.3401426632393068e+00  1.4593389659746234e+00  7.5247058088907781e-01  1.4390610915205728e+00  1.4615284275347764e+00  1.4713803517648358e+00  1.4531372726078031e+00  1.2072298660959599e+00  1.2983764156043662e+00  1.2064863491800386e+00  1.0658121596097456e+00  1.1129788361455371e+00  4.5061128154886754e-01  1.2647614933739351e+00  1.2046708555281478e+00  1.3720438113717781e+00  4.5604975964348521e-01  3.4806684434000529e-01  1.0697708930756773e+00  1.1612116566830808e+00  1.3733691050189745e+00  4.9805930995657993e-01  8.5222479156170405e-01  1.3677940371023114e+00  1.3302275065580522e+00  1.2637235552216337e+00  4.9521114693977719e-01  7.5519271110400810e-01  6.4233909231392483e-01  4.3526913432989900e-01  1.4436424300312007e+00  1.0287914735358754e+00  1.2230646424980864e+00  1.3872018216977553e+00  1.0879549768814081e+00  1.1458860128852935e+00  1.3034904468082629e+00  1.5043581483988158e-01  1.4621877173229643e+00  1.4435638215206690e+00  1.4744076954784178e+00  1.4664751323695651e+00  1.3514176654888852e+00  1.2597905319872860e+00  3.7451390196518436e-01  1.4726154760613577e+00  1.2925646364350318e+00  1.3676159555037053e+00  7.9099267402588036e-01  6.3360576435740446e-01  9.7901817757172160e-01  4.6713406083741776e-01  6.0569582155616242e-01  6.3547293194247767e-01  1.2211237011597851e+00  4.9349063756618033e-01  1.7063480964835531e-01  1.4415343019762765e+00  1.8131017198956509e-01  1.2399109280205298e+00  1.4734457227103190e+00  9.7133958805470433e-01  9.0810444799713264e-01  1.2925499730902876e+00  1.4641813787044431e+00  8.9188823003341100e-01  1.4388120370952326e+00  1.6231581108190013e-01  3.7137314700635371e-01  2.6066075878345041e-01  9.7135402490282075e-01  8.9825004886022020e-01  1.0119803444565121e+00  1.5102361421829288e-01  7.8288007507772517e-01  1.1803364270573957e+00  3.3581715502554826e-01  1.4209905899561190e+00  1.7516881710712379e-01  4.8230935347174664e-01  6.9740418457903530e-01  6.0272954760193720e-01  4.5792631207483836e-01  1.3404343815900848e+00  1.12659