<?xml version="1.0"?>
<VTKFile type="UnstructuredGrid"  version="0.1"  >
<UnstructuredGrid>
<Piece  NumberOfPoints="228" NumberOfCells="392">
<Points>
<DataArray  type="Float64"  NumberOfComponents="3"  format="ascii">-0.994869323391895 0.1011683219874327 0  -0.9948693233918952 -0.101168321987432 0  -0.9541392564000488 -0.2993631229733582 0  -0.8743466161445822 -0.4853019625310808 0  -0.7587581226927911 -0.651372482722222 0  -0.6121059825476627 -0.7907757369376986 0  -0.4403941515576342 -0.8978045395707417 0  -0.2506525322587213 -0.9680771188662041 0  -0.05064916883871355 -0.9987165071710528 0  0.1514277775045767 -0.9884683243281114 0  0.3473052528448203 -0.9377521321470804 0  0.5289640103269624 -0.848644257494751 0  0.6889669190756865 -0.72479278722912 0  0.8207634412072763 -0.5712682150947924 0  0.9189578116202306 -0.3943558551133187 0  0.9795299412524943 -0.2012985200886611 0  1 0 0  0.9795299412524945 0.2012985200886601 0  0.9189578116202306 0.3943558551133186 0  0.8207634412072763 0.5712682150947923 0  0.6889669190756866 0.7247927872291199 0  0.5289640103269624 0.8486442574947509 0  0.3473052528448203 0.9377521321470804 0  0.1514277775045767 0.9884683243281114 0  -0.05064916883871264 0.9987165071710528 0  -0.2506525322587204 0.9680771188662043 0  -0.4403941515576344 0.8978045395707416 0  -0.6121059825476626 0.7907757369376989 0  -0.7587581226927909 0.6513724827222223 0  -0.8743466161445821 0.485301962531081 0  -0.9541392564000488 0.299363122973358 0  -5.551115123125783e-17 1.110223024625157e-16 0  0.3076313482361462 -0.3974269375608235 0  -0.4922907552887937 -0.1011683219874323 0  0.3813355708395402 0.3273658496682966 0  -0.2658459748881991 0.4265104157606315 0  -0.1780334475446313 -0.4807046356510734 0  0.5732110388367373 -0.05828986539264541 0  0.03250155312237296 0.6408760174402033 0  -0.5896948916714655 0.2530580080178482 0  0.03732152118723064 0.3193694214939379 0  -0.5754472466796161 -0.4005231044505769 0  0.1025794121831753 -0.6593965678781224 0  0.2792342806193598 -0.1016322410994503 0  -0.3191336567755438 0.1369510379277014 0  0.6847877644665563 0.2148535471835786 0  0.6069193991058995 -0.3582438578292096 0  -0.2337264802858501 0.6966057904734009 0  -0.7435800393403444 2.081668171172169e-16 0  -0.5224840659962453 0.5166218110841962 0  0.4551497905832514 0.5880050535815238 0  -0.4114750977189303 -0.6127740794404383 0  -0.2168787048302026 -0.1929974399871101 0  0.04173440692557698 -0.3045563437800989 0  0.3615545128752156 -0.650869449468613 0  -0.1427980030072304 -0.7350511661405263 0  0.2135758740351563 0.140643489110772 0  0.2056253655386565 0.4826820299490779 0  0.5847545938086959 0.4105285129956708 0  -0.6819943955157407 -0.2096985900837986 0  0.2568244083011432 0.7183518820826861 0  0.4835895425359563 0.1376805128290042 0  0.7803790076369262 0.01644457891040535 0  0.4386522263396373 -0.2355881444406061 0  -0.4014468155593475 -0.2876307087070649 0  0.7383661012856504 -0.1916010405339057 0  -0.1554112510435288 0.2565041256244692 0  -0.4345099312492335 0.6971067043884012 0  0.472586945340448 -0.4947881862987527 0  0.01965930931106458 -0.8262089869730189 0  0.2364566491067624 -0.7884511436911861 0  -0.570232131688285 0.06790470222612628 0  -0.07205544140343179 0.8051613385061551 0  -0.1261274370822003 0.5468527129992604 0  -0.4354210625653577 0.3540685221451223 0  -0.6911447098157056 0.4192800469312021 0  -0.7820202490363949 0.1966935359323062 0  0.1325504218980863 -0.4716206863122288 0  0.6425864303673364 -0.5516423560996286 0  -0.5867615893641858 -0.6172728414374525 0  -0.1536642842628866 0.08223007328747764 0  -0.3202899121296306 -0.04422655031662259 0  0.2082174499463119 0.3116306084643088 0  0.1027412844305987 0.8009936161533233 0  -0.2980208089897049 -0.8046801675618862 0  -0.7454899473809944 -0.3703090610232014 0  0.5268776113708602 -0.6806697586480848 0  0.7525957503855863 0.417724719133906 0  -0.05227532655602259 -0.5928968629629638 0  -0.8331467153353613 -0.1401972540628261 0  0.6544508672558451 0.5618276410818074 0  -0.3483561060479232 -0.4519945014608862 0  0.02073054185790349 0.479910120580078 0  0.05038192709805649 0.155977774177271 0  -0.3344306349335923 0.5716239385197079 0  0.4161496649728176 -0.01163931740685381 0  0.7578096205897965 -0.4206186531822163 0  0.1069833436436383 -0.1404773799821894 0  -0.05695613097508052 -0.1543524116650297 0  0.2018480720065045 -0.273215222820266 0  -0.01723240320786298 -0.444826564925839 0  -0.1182273225942222 -0.3198409627681572 0  0.5871678703263843 -0.2085924611175567 0  0.3886611379144775 0.7923396183627159 0  0.1663057107216378 -0.002201860995686908 0  -0.2529155091686421 -0.6206921940524677 0  0.8624885430103586 -0.1084015597614421 0  0.6204298445915035 0.08178243096223917 0  0.834632701343911 0.2618676994307037 0  -0.3052616849847763 0.2840811369936159 0  -0.4492930343561251 0.2069384230792078 0  -0.6967225833828642 -0.5134561110322159 0  -0.1210596516318544 0.3996905502762229 0  -0.5391332696286543 -0.2393505072856519 0  0.5196120496187502 0.2795029949338469 0  0.2643996380599892 -0.539082722214389 0  -0.8135661208551476 0.3394169526515242 0  -0.5716562549259524 0.6522730718309868 0  -0.333859653558883 0.8004928267994282 0  0.3826470229314816 -0.7957123162064468 0  -0.4323979226466273 -0.7546335463882254 0  -0.2628883664727685 -0.3305653944159503 0  -0.1795217648757249 -0.05670428471424793 0  0.2319634054032687 0.8569618928201611 0  -0.1131988364501976 -0.8726417990894729 0  -0.4294587217406612 0.04706263663593103 0  0.9897649706262472 0.10064926004433 0  0.8208551066142797 -0.299931931851173 0  -0.6209032841909592 -0.05795601567770198 0  -0.8574420550696202 0.07985071072123048 0  0.450501689539536 0.4485495521492987 0  0.566704718487781 0.665550120173213 0  0.3359468330803369 0.5221729180541099 0  0.3491141562255561 0.1875924284355151 0  -0.5017357427630742 -0.5130410201411288 0  -0.09499231620055257 0.6751489523415197 0  -0.5622480385800533 0.3907323863256597 0  -0.203625393259761 0.8402790264182355 0  -0.664730892124153 0.5528697713516246 0  0.4363835308345114 -0.367706568208727 0  -0.3445048258876031 -0.1713846335444669 0  0.2928178531097844 0.03517689552352547 0  0.8570603488708849 0.1282015300276887 0  0.2357221513008746 -0.6621190523692614 0  0.01749219092407309 0.8932191000396977 0  -0.6643848819793448 0.151607233968363 0  -0.7955951153282258 -0.2576441804254551 0  -0.02281181761309112 -0.7115581749457791 0  0.1671754257344779 0.6144316382395867 0  -0.7003323303622062 0.2996027858732007 0  -0.9745042898959719 0.2002657224803954 0  -0.4077897045948094 0.4734597586812367 0  0.3149393271538334 -0.2209782882663371 0  0.3689828646548325 0.6729517920739098 0  0.1142700597881518 0.4084492624554055 0  0.2876067921786618 0.3983790119215933 0  -0.4549697539389812 -0.395675250504254 0  -0.07011349214751623 0.1702133895537272 0  -0.8934482011237426 -0.03548990033607934 0  0.4696093915948015 -0.1193725917424664 0  -0.3361713579416699 -0.6963532983793975 0  0.7063761773348888 -0.3015311432892657 0  0.1195191027376371 0.2437219283034615 0  0.05544953951849114 -0.5555943581931381 0  -0.9142429362723155 -0.3923325427522195 0  -0.1506508505487165 0.9833968130186286 0  -0.8165523694186865 0.5683372226266517 0  0.6744503169202027 -0.01442298903777445 0  0.726358535308227 0.1126499989104189 0  0.8894821923890264 -0.001224011291626118 0  0.1380495177925443 -0.8646993109542294 0  0.2493665151746985 -0.9631102282375958 0  0.6261080596149793 0.3082622606247021 0  0.54191825564149 0.5153078179013754 0  0.4696564887107881 0.717673777840665 0  -0.6271025979335031 -0.304207309978514 0  -0.7189389621766065 -0.1066559793922019 0  0.581767439256445 0.182579390341002 0  0.5150413197722397 0.0335859771259778 0  0.7372010565161495 0.3101025553418683 0  0.3631440312717112 -0.491793569337087 0  0.7528453649891887 -0.08626012471193989 0  0.6545008760734841 -0.1265407369350052 0  0.2753208647527122 0.6117666137059218 0  0.3835260998780429 0.08827742339545581 0  0.1983887775651661 -0.3833116121370435 0  -0.2268576419828532 0.5880090991690528 0  -0.2430401044142963 0.02699068439865753 0  0.05038930433293156 -0.9935924157495821 0  0.1352556943539499 -0.7594665468073467 0  0.5183254944876176 -0.303034958974962 0  -0.4458970118792255 -0.1939260700648426 0  -0.5341466755718066 -0.7135610879286997 0  -0.05374711570099075 0.2716949046391295 0  -0.2061791689223201 0.3443975938906951 0  -0.2425456949432626 0.2039490406666849 0  -0.1559560318017663 -0.5825359869444831 0  0.9897649706262471 -0.1006492600443306 0  -0.994869323391895 3.400058012914542e-16 0  -0.9745042898959719 -0.2002657224803951 0  -0.6854320526202269 -0.7210741098299603 0  -0.6854320526202267 0.7210741098299606 0  -0.3455233419081774 0.9329408292184729 0  0.6089654647013245 0.7867185223619354 0  0.8698606264137534 0.4828120351040555 0  0.6089654647013245 -0.7867185223619355 0  0.8698606264137534 -0.4828120351040556 0  0.9492438764363625 0.2978271876009893 0  0.05038930433293203 0.9935924157495821 0  -0.8165523694186867 -0.5683372226266514 0  0.2493665151746985 0.9631102282375958 0  -0.1506508505487174 -0.9833968130186284 0  -0.9142429362723155 0.3923325427522195 0  0.4381346315858913 0.8931981948209157 0  0.7548651801414814 -0.6480305011619563 0  -0.5262500670526484 -0.8442901382542202 0  0.4381346315858913 -0.8931981948209158 0  0.7548651801414814 0.648030501161956 0  -0.5262500670526484 0.8442901382542203 0  -0.3455233419081778 -0.9329408292184729 0  0.9492438764363624 -0.2978271876009899 0  0.1707588173596587 -0.582117043784187 0  -0.434259347560866 0.7975492279416381 0  -0.3341102372472505 0.7000503032461914 0  -0.5247980404521035 0.741116029155978 0  -0.4813681457230825 0.6082637470634101 0  -0.8649935977363551 0.2532020712332185 0  -0.7514021966804849 0.1005742915613285 0  </DataArray>
</Points>
<Cells>
<DataArray  type="UInt32"  Name="connectivity"  format="ascii">51 120 192  52 101 121  52 98 101  59 89 176  55 88 147  6 84 120  69 170 189  41 134 156  46 139 190  46 96 161  63 152 159  46 68 78  61 114 177  32 99 152  40 92 112  43 95 141  17 108 142  47 72 135  35 73 186  35 94 151  47 72 137  35 74 151  28 138 201  49 136 138  49 117 138  40 93 162  39 145 149  50 153 174  57 148 183  54 70 143  11 86 119  52 81 140  18 87 108  34 114 130  47 118 137  118 222 223  8 69 124  53 77 100  37 107 167  37 159 178  57 82 155  60 83 123  0 129 150  48 145 227  74 109 110  31 97 104  59 85 146  54 70 119  42 88 147  43 99 152  53 97 98  33 113 128  53 98 101  45 172 177  90 131 173  54 68 86  46 78 96  67 222 223  49 117 225  76 145 227  67 224 225  75 136 138  58 90 173  50 131 174  51 120 160  55 105 196  44 109 195  33 81 140  77 100 163  53 97 99  68 78 86  54 115 143  55 84 124  61 114 133  34 114 133  50 131 173  50 130 132  114 172 177  58 87 90  59 89 146  59 113 175  60 83 148  38 72 83  61 133 184  95 141 184  65 102 182  43 97 104  43 97 99  41 113 175  64 91 156  96 127 161  14 96 127  93 157 193  73 92 112  47 118 223  46 68 139  54 68 180  42 147 189  10 70 171  44 81 187  39 74 110  23 83 144  72 83 144  40 93 193  38 73 92  44 109 110  35 74 109  75 116 149  76 145 149  76 116 149  76 116 226  42 143 221  53 77 185  12 78 86  41 111 134  3 85 111  31 80 122  31 97 98  33 71 125  33 81 125  40 92 154  56 93 162  23 83 123  84 120 160  51 105 160  79 111 134  41 85 111  54 86 119  45 108 179  88 100 163  36 88 100  48 89 176  1 158 198  19 87 90  51 79 134  36 105 196  57 92 154  38 83 148  31 80 157  31 93 157  35 94 186  67 94 223  43 95 159  95 159 178  13 78 96  56 93 104  31 93 104  31 98 122  52 98 122  53 99 185  32 99 185  53 100 101  36 100 101  36 91 121  36 101 121  65 127 161  37 102 182  103 153 174  43 104 141  56 104 141  36 91 105  51 91 105  62 106 169  107 167 168  45 107 168  17 126 142  66 194 195  35 112 194  39 71 110  44 81 125  4 79 111  35 73 112  66 112 194  33 140 191  59 113 128  58 114 172  58 114 130  54 115 180  32 115 180  29 75 116  27 117 224  26 118 202  10 70 119  6 120 215  64 140 191  64 91 121  81 122 187  52 81 122  60 103 123  22 103 123  7 84 124  44 110 125  71 110 125  16 169 197  16 126 169  15 106 127  65 106 127  33 71 128  48 71 128  48 89 158  48 129 158  34 82 155  34 130 155  20 90 131  60 103 153  60 148 183  34 82 133  56 82 133  51 91 134  91 134 156  38 73 135  38 72 135  39 74 136  49 151 225  25 137 165  29 75 166  63 139 190  32 139 152  64 121 140  52 121 140  133 141 184  56 133 141  62 142 168  62 167 168  115 143 221  70 170 189  24 72 144  48 71 145  39 71 145  2 146 199  3 85 164  55 124 147  69 124 147  38 92 148  57 92 148  39 136 149  75 136 149  30 150 226  30 116 226  49 136 151  74 136 151  63 139 152  43 152 159  57 132 183  50 132 153  56 82 162  57 82 154  130 132 155  57 132 155  64 113 156  41 113 156  66 157 193  66 80 157  1 89 158  63 102 159  37 102 159  55 84 160  55 105 160  65 102 161  46 102 161  82 154 162  40 154 162  42 88 163  77 115 221  85 146 164  2 146 164  72 137 165  24 72 165  75 138 166  28 138 166  65 181 182  62 167 181  108 142 168  45 108 168  126 142 169  62 142 169  69 147 189  9 170 188  70 170 171  9 170 171  87 108 179  58 87 172  50 130 173  58 130 173  21 174 203  21 103 174  59 85 175  41 85 175  59 128 176  48 128 176  61 107 177  45 107 177  37 107 178  61 107 178  87 172 179  45 172 179  68 139 180  32 139 180  65 106 181  62 106 181  167 181 182  37 167 182  132 153 183  60 153 183  95 178 184  61 178 184  77 115 185  32 115 185  73 135 186  47 135 186  80 122 187  44 80 187  69 170 188  8 69 188  70 143 189  42 143 189  46 102 190  63 102 190  33 113 191  64 113 191  51 79 192  5 192 200  40 112 193  66 112 193  35 109 194  109 194 195  44 80 195  66 80 195  55 88 196  36 88 196  106 169 197  15 106 197  129 158 198  0 129 198  89 146 199  1 89 199  79 192 200  4 79 200  117 138 201  27 117 201  118 137 202  25 137 202  131 174 203  20 131 203  19 87 204  18 87 204  12 86 205  11 86 205  14 96 206  13 96 206  18 108 207  17 108 207  24 144 208  23 144 208  4 111 209  3 111 209  23 123 210  22 123 210  8 124 211  7 124 211  30 116 212  29 116 212  22 103 213  21 103 213  13 78 214  12 78 214  120 192 215  5 192 215  11 119 216  10 119 216  20 90 217  19 90 217  117 224 225  26 118 222  7 84 219  6 84 219  15 127 220  14 127 220  77 163 221  42 163 221  26 218 222  67 222 224  94 186 223  47 186 223  218 222 224  27 218 224  94 151 225  67 94 225  129 150 226  76 129 226  76 129 227  48 129 227  </DataArray>
<DataArray  type="UInt32"  Name="offsets"  format="ascii">3 6 9 12 15 18 21 24 27 30 33 36 39 42 45 48 51 54 57 60 63 66 69 72 75 78 81 84 87 90 93 96 99 102 105 108 111 114 117 120 123 126 129 132 135 138 141 144 147 150 153 156 159 162 165 168 171 174 177 180 183 186 189 192 195 198 201 204 207 210 213 216 219 222 225 228 231 234 237 240 243 246 249 252 255 258 261 264 267 270 273 276 279 282 285 288 291 294 297 300 303 306 309 312 315 318 321 324 327 330 333 336 339 342 345 348 351 354 357 360 363 366 369 372 375 378 381 384 387 390 393 396 399 402 405 408 411 414 417 420 423 426 429 432 435 438 441 444 447 450 453 456 459 462 465 468 471 474 477 480 483 486 489 492 495 498 501 504 507 510 513 516 519 522 525 528 531 534 537 540 543 546 549 552 555 558 561 564 567 570 573 576 579 582 585 588 591 594 597 600 603 606 609 612 615 618 621 624 627 630 633 636 639 642 645 648 651 654 657 660 663 666 669 672 675 678 681 684 687 690 693 696 699 702 705 708 711 714 717 720 723 726 729 732 735 738 741 744 747 750 753 756 759 762 765 768 771 774 777 780 783 786 789 792 795 798 801 804 807 810 813 816 819 822 825 828 831 834 837 840 843 846 849 852 855 858 861 864 867 870 873 876 879 882 885 888 891 894 897 900 903 906 909 912 915 918 921 924 927 930 933 936 939 942 945 948 951 954 957 960 963 966 969 972 975 978 981 984 987 990 993 996 999 1002 1005 1008 1011 1014 1017 1020 1023 1026 1029 1032 1035 1038 1041 1044 1047 1050 1053 1056 1059 1062 1065 1068 1071 1074 1077 1080 1083 1086 1089 1092 1095 1098 1101 1104 1107 1110 1113 1116 1119 1122 1125 1128 1131 1134 1137 1140 1143 1146 1149 1152 1155 1158 1161 1164 1167 1170 1173 1176 </DataArray>
<DataArray  type="UInt8"  Name="types"  format="ascii">5 5 5 5 5 5 5 5 5 5 5 5 5 5 5 5 5 5 5 5 5 5 5 5 5 5 5 5 5 5 5 5 5 5 5 5 5 5 5 5 5 5 5 5 5 5 5 5 5 5 5 5 5 5 5 5 5 5 5 5 5 5 5 5 5 5 5 5 5 5 5 5 5 5 5 5 5 5 5 5 5 5 5 5 5 5 5 5 5 5 5 5 5 5 5 5 5 5 5 5 5 5 5 5 5 5 5 5 5 5 5 5 5 5 5 5 5 5 5 5 5 5 5 5 5 5 5 5 5 5 5 5 5 5 5 5 5 5 5 5 5 5 5 5 5 5 5 5 5 5 5 5 5 5 5 5 5 5 5 5 5 5 5 5 5 5 5 5 5 5 5 5 5 5 5 5 5 5 5 5 5 5 5 5 5 5 5 5 5 5 5 5 5 5 5 5 5 5 5 5 5 5 5 5 5 5 5 5 5 5 5 5 5 5 5 5 5 5 5 5 5 5 5 5 5 5 5 5 5 5 5 5 5 5 5 5 5 5 5 5 5 5 5 5 5 5 5 5 5 5 5 5 5 5 5 5 5 5 5 5 5 5 5 5 5 5 5 5 5 5 5 5 5 5 5 5 5 5 5 5 5 5 5 5 5 5 5 5 5 5 5 5 5 5 5 5 5 5 5 5 5 5 5 5 5 5 5 5 5 5 5 5 5 5 5 5 5 5 5 5 5 5 5 5 5 5 5 5 5 5 5 5 5 5 5 5 5 5 5 5 5 5 5 5 5 5 5 5 5 5 5 5 5 5 5 5 5 5 5 5 5 5 5 5 5 5 5 5 5 5 5 5 5 5 5 5 5 5 5 5 5 5 5 5 5 5 5 5 5 5 5 5 </DataArray>
</Cells>
<PointData  Scalars="f_30"> 
<DataArray  type="Float64"  Name="f_30"  format="ascii">5.2705064405458157e-01  5.1311911151381495e-01  5.0724252095704492e-01  5.0094482260116036e-01  5.1008095202409598e-01  5.2894558754376586e-01  5.1701621834183198e-01  5.1343819523096723e-01  5.1079458948914058e-01  5.1929157606921938e-01  5.1033199533878404e-01  5.1456810882474779e-01  5.1136038983272403e-01  5.1475435147940862e-01  5.2487325471673274e-01  5.2302084777392499e-01  5.3882527730730934e-01  5.2829270399273298e-01  5.2464312790962353e-01  5.2201603876378488e-01  5.2499653571991112e-01  5.2934723924022897e-01  5.3078506861297325e-01  5.1731423422266143e-01  5.1912010182947310e-01  5.2821088084911161e-01  5.3459014800466842e-01  5.3406601925398767e-01  5.2637797046793144e-01  5.1388063533099171e-01  5.3008975478119358e-01  7.1519313915556626e-01  6.6527207839949898e-01  6.6373071536518957e-01  6.7002689123922443e-01  6.6999152613298596e-01  6.6196491575372984e-01  6.5471833981042882e-01  6.4021517730404698e-01  6.3700939504757192e-01  6.9722688061699012e-01  6.1425700564723529e-01  6.2564463796054315e-01  6.9927830735867635e-01  6.9180525842426455e-01  6.2163321144974837e-01  6.2111346860054373e-01  6.1577271152457691e-01  6.0659950576215671e-01  6.1409208443293972e-01  6.1430462296428401e-01  6.0775133868550668e-01  6.9663823647047873e-01  6.9557170107774990e-01  6.0587415750518581e-01  6.0381837682532913e-01  7.0413607779253939e-01  6.6650730176397543e-01  6.2232878908768507e-01  6.1064262801259250e-01  6.0932128136062114e-01  6.6999417685301843e-01  6.0437477686843089e-01  6.6772666857943408e-01  6.6433094017877148e-01  6.0714753306102920e-01  6.9872521230138795e-01  5.9194356494286315e-01  6.2407610751678633e-01  5.7799925710952227e-01  5.7983761039883086e-01  6.5106624378356737e-01  5.9346629812162621e-01  6.5834044438590456e-01  6.5665266600547689e-01  5.9020106941799866e-01  5.9092299487418554e-01  6.6646562091253181e-01  5.7529181237760718e-01  5.7120265149355409e-01  7.0889493407284876e-01  6.9353165672457662e-01  6.9113172228066744e-01  5.9458595314219032e-01  5.7049243699796237e-01  5.7062312142608984e-01  5.6945023964030894e-01  5.7861700150916118e-01  6.4404286474020600e-01  5.6974181316690464e-01  5.7761321166373270e-01  6.4961303391595981e-01  6.7452753962393608e-01  7.1109575702322803e-01  6.3504359961888646e-01  6.8360359811192017e-01  5.7236781790943303e-01  7.0871526906284432e-01  7.0856416396278432e-01  6.9211608485942733e-01  6.7438004607384017e-01  6.9049843432568347e-01  6.4330387980433323e-01  5.7456727892262638e-01  7.1050443625071757e-01  6.2563090004869570e-01  5.7569785270942608e-01  6.4481502913971622e-01  5.7568847572918813e-01  6.8283506864482513e-01  6.6853846373829784e-01  5.6281011269686010e-01  6.8431229922241144e-01  6.4375989694467772e-01  6.5314544008817754e-01  6.4357381176522954e-01  5.6810207124953016e-01  5.7549598304123073e-01  5.7638058741531584e-01  5.6088705328647892e-01  5.6734206121462893e-01  6.7797394694149904e-01  7.0679105223522742e-01  5.7003445453663670e-01  5.6172121981685363e-01  6.7769695740634528e-01  5.3225365022138726e-01  5.7274722859525229e-01  6.3705878470934818e-01  5.7258356530803012e-01  6.4259754878981878e-01  5.7309359328675002e-01  6.4582056283457590e-01  6.8810638262241697e-01  6.1185946332260333e-01  6.2911017580904560e-01  6.2724480865118015e-01  5.7454548784273096e-01  5.7300154286763316e-01  6.5246359522896957e-01  6.8374711362337370e-01  6.9988938332823392e-01  5.7768983146756137e-01  6.1640254614759082e-01  5.6406076405102545e-01  6.2568236295095003e-01  5.7007054548496683e-01  6.1373816892850641e-01  6.4222426077266082e-01  6.0492097138814804e-01  5.2565567127889123e-01  6.4324887452458579e-01  6.8678859868720443e-01  6.0828089675182750e-01  6.8326876899477407e-01  6.7211345282963619e-01  6.4056937737724762e-01  7.0875399181155530e-01  5.5656152721949248e-01  6.7228625249143970e-01  5.9726857974735437e-01  6.0428132554933622e-01  7.0251809894058825e-01  6.5166057987287751e-01  5.0154332881282193e-01  5.1844878604173827e-01  5.1530942627747645e-01  6.3234520594732169e-01  6.1731497801708868e-01  5.7171211136334943e-01  5.6144426955829951e-01  5.1210453583257132e-01  6.2682297870044601e-01  6.1265839697651825e-01  5.8021358688132030e-01  6.1401372521653397e-01  6.0763084941740364e-01  6.4803813545662547e-01  6.6725428455751112e-01  5.9753675776207271e-01  6.4139103025361655e-01  6.0936624246106341e-01  6.3304629725418049e-01  6.3373252249398049e-01  6.8744090780572387e-01  6.7743247833608911e-01  6.4291270784717824e-01  7.0186027631174130e-01  5.1214936947737089e-01  5.9601721011929576e-01  6.4609812275543677e-01  6.6545502591278205e-01  5.6138764609558967e-01  7.0136659396466416e-01  6.8584518475948320e-01  6.9586911844243238e-01  6.4146744731813199e-01  5.3195881210544327e-01  5.2265217127314867e-01  5.0766076661055348e-01  5.1914401396834042e-01  5.2738480076600180e-01  5.2848245826123785e-01  5.2810971403395768e-01  5.3160996995529408e-01  5.2189366335903331e-01  5.2869587356744807e-01  5.3604461224258926e-01  5.3115194976020375e-01  5.1545297486801955e-01  5.3561012982771616e-01  5.2343571123065258e-01  5.3184759387184255e-01  5.3970868671594430e-01  5.2050413789739269e-01  5.2444140671377948e-01  5.2429919241802780e-01  5.3180991196370109e-01  5.4071220867015402e-01  5.2301864603170234e-01  5.3225080814525438e-01  6.4092514672236600e-01  5.6591305600284680e-01  6.0486612454922672e-01  5.6559790199475435e-01  6.0419430938468899e-01  5.6143680365249349e-01  6.0335699358125294e-01  </DataArray> 
</PointData> 
</Piece>
</UnstructuredGrid>
</VTKFile>